# vtk DataFile Version 2.0
Ocean Simulation Step
ASCII
DATASET STRUCTURED_POINTS
DIMENSIONS 200 200 1
ORIGIN 0 0 0
SPACING 1 1 1
POINT_DATA 40000
SCALARS Temperature float 1
LOOKUP_TABLE default
10.01582695224159 11.496091117673494 12.397748559891488 15.776933922213434 11.60980739884067 13.047737880561014 10.97589996198851 15.511504159054228 23.346407071360456 19.34704827175186 14.77256760623132 12.514667782639908 16.120096602038046 20.27460017025213 18.107577044864154 22.984790233624082 19.076267058223078 15.327000177597334 20.357115709449698 24.602294862016553 17.657007539401405 14.649898424189162 9.268024696595454 10.48427588669949 12.190592952221113 12.68783171803169 17.568039855921548 11.02749948227119 17.93942985666746 25.375338103828184 22.558139623634013 19.249316681798216 20.27289248557457 24.732695385677967 23.590921596673283 17.417383872563622 13.716617044160673 21.402740282560615 13.050829189372317 20.006115613336032 18.28221164737649 22.084087293925197 22.440226780314788 16.29907243976012 19.805526136160015 24.462262834692616 20.09451229390539 13.1693332174834 17.894583089529387 12.12797025183286 16.27297673431552 14.565283576699851 17.73185718830826 21.526364882971635 22.894923986900192 24.81269214402489 15.309247705400228 10.367320503221679 14.584699471677434 9.720463366113377 12.094698201828583 24.297917926699654 24.276440693555458 25.87787654066426 22.688663938787343 16.805426776222912 24.594423242946945 20.769387015202934 16.79883558976627 13.328715495966627 15.71460105374167 21.42850435263307 22.972228283157104 23.973727187838897 20.72295801492504 18.505235524445734 20.476635343489964 16.86107118425258 11.730313306198097 18.403741074937543 16.645115565430913 11.232457961115166 13.256401287719362 20.77384809921408 19.831176237631347 12.013383200471347 9.502861858277402 22.12216269938861 15.283619822618768 12.8966530796101 20.547037972748704 13.227794329533346 10.547909442547738 9.158842341618582 12.725992089507415 10.491533005279468 12.277281520742951 10.165367245669795 14.86931407289581 17.028309791497637 12.928086075529054 22.668846162950885 17.928586566516284 17.058797357741422 12.023244336009828 10.629603029135275 13.48022322973694 15.87304538308541 14.559460618493343 23.26717272649242 22.372212384218766 10.920850858941929 17.95534674864694 17.83785420809794 10.434462008630023 19.543023451833164 10.973323807095928 11.810011076404036 17.413459200928475 12.61194393869145 19.188589160700886 14.276119797623815 13.031432077095314 18.29728964908788 22.005848794914428 12.629572723276386 19.210607473670436 11.623319528538955 17.722606524226272 21.637553918181297 21.14809126641078 20.092319913644705 15.829618524718095 20.129653553110746 26.188221789171706 23.14916156120061 18.67307497796358 22.267244880451095 20.65064574388349 18.05929111720858 12.239046683839357 13.863501155451708 16.771886033473173 23.798572259497536 19.431547613274 10.267195772343548 18.489386308374524 23.251273259004105 18.511708677416728 12.610617761976197 24.416606436995554 22.497697472567882 23.708399159040795 14.883194782781434 16.161455207217735 15.690595352313995 19.17444620025944 14.58865302296679 16.197637777965433 11.434089574642812 12.965656646591722 16.058588354999873 10.57344633964711 18.924115228335424 24.189628035404546 20.189147480431185 17.684335068530224 14.288959533458343 18.196182857210484 16.21104209198118 23.558950368186423 21.156444411632748 18.538069900732104 18.273772897723813 24.12995768742443 19.25533266650311 21.987081575981485 14.399947618990543 11.66215857571209 22.275096757854467 20.388052466735353 25.250444955337567 12.895738447540353 10.411801545429498 12.718384196828946 22.214535942859015 21.34124626134813 23.774834915548933 20.614013624004304 17.233847865516132 12.248153456619104 12.42680090589948 19.143654813112448 14.158817123969623 17.72744602161477 11.83703317914765 22.269025994994163 18.62477716333157 19.613012975010847 19.414570070350987 10.66812402328201 9.381574722398211 17.33980778740956 21.899931241489586 19.25835369554537 21.853965090093418 16.717449776824893 15.591513202271155 20.379032532539895 12.28959354140896 15.158035330787582 13.86649580256038 17.77572792572934 18.793355236028933 12.287850554080523 24.638806044954556 23.306414706867802 19.195826298089735 17.099465402211173 26.07793793608751 25.275157250777774 15.115280710522068 14.111067409555861 13.835195075421286 11.44460321636339 17.880567350905597 16.33606327507686 12.778574672542673 13.834567876232557 15.078191334665172 17.433882376532235 14.831676291110629 23.43512694463128 25.128667399727643 21.6862272161791 23.39107207355268 12.55325308721031 23.941248011799484 18.571518126507332 23.64278648534849 17.473121045313984 21.455267602727353 25.993078385295362 23.99973718340898 23.006411992278792 20.351431976589684 11.529691514144677 15.944376113514933 19.461308004463053 16.453713476959813 20.74084240501151 24.548410051273194 22.59212852834586 25.648888178268997 14.853978015190899 19.259612257175906 18.445368053693986 17.825536343806572 17.068020988273204 15.411716805106044 18.505765424950944 25.264372947739478 22.323371078511855 17.390511234143542 12.844077101430175 10.597242016782346 15.240645920214966 11.601813280736746 12.274453136692877 11.263710570734721 17.30001549504349 25.01770832667326 20.024554299813296 23.733539211989502 24.19846093041005 22.554640277580596 24.274009406666217 20.879848601353842 23.619526274626693 22.948622391717787 22.115726565735702 17.507373746135414 16.70283338396688 15.831980140937207 15.971184665755608 11.161156218729287 10.843646532003373 15.771442304774688 12.287383026086863 16.511456086391373 16.603171620351592 19.933703729160545 13.113037564812018 11.416675603784627 20.56932720331616 19.924853611316692 20.93843240386654 11.029285217701949 17.118384512293083 10.704882104637683 14.733800051570844 23.088954759160288 17.24234903669557 14.306409024767627 10.803810327121035 12.444872282008786 13.854438770617136 25.08531193903066 22.46470458353052 19.536817851059624 24.005983437342056 17.58904417480486 20.540952452157377 14.285034890452055 10.467134634543243 21.22808528658564 11.909311340936418 14.973936987450369 12.669579959666885 17.434192498695424 16.898757932799064 10.419760315015685 8.465662626842082 9.985881408702362 23.82021985062798 21.106990388203517 23.294643655536518 12.603240620049128 10.86118244750991 19.884022108083737 12.405584010034785 12.865604031827932 14.50146354850242 12.694965444207456 21.475180906468328 18.729000823122245 23.77130316302928 14.94191433321417 11.692058105715578 9.092014385487824 12.891796847783752 18.430619900932367 24.995241137480313 22.597830133090895 14.48520975675395 13.044977081791368 25.107073302812747 21.53141081925019 15.490832333939677 14.759110079725712 23.680049410096 19.75747881250091 24.13745177318507 13.80810448399795 11.51068641187866 16.80048739485068 21.17873733117878 22.11080812475271 14.936576472973886 21.661867158083115 22.97901787694319 15.357524309446497 12.414663496174361 13.70167516723685 17.246370877369245 20.732037735803868 13.091556868588095 11.712006948947977 12.42400605630891 13.410065535870899 23.577736040367395 18.615096260677817 17.743728674883506 22.267431381468707 23.162620178700198 13.510159945519467 18.784354347096965 23.176150789006677 23.292322833847553 21.18695963238328 22.075224258113572 23.978949711028086 23.33375690336567 19.821343126948136 17.023487180507995 13.114776138289958 9.185446957086373 13.157044585862502 13.388009138406213 14.034970858840968 13.560722362904892 12.174182673149568 19.188630566847696 16.63891958709067 20.251841491252268 18.41450591882241 17.175026668624433 11.988005969585135 19.14540578175999 19.036367045361075 22.494155206201395 15.37188010371396 17.322117632662913 19.88703500061407 15.809851700971858 22.781656055451545 12.814288467550696 20.75521552327824 23.33637457942097 20.21580223988638 13.110049866180532 16.53941704849233 17.417720490775245 12.73501018510537 11.218339820138882 17.555874733719886 13.145176136746414 18.4789808581291 18.949168163488913 21.719593299053184 22.27883952974129 16.542060440994835 15.531898302348623 10.803446621537008 15.559003758068894 17.475513528374652 12.990602504824015 18.164013090121045 11.200271932168391 10.979611274969994 13.273296523326968 15.388896936194195 15.747839935208678 22.569408321226646 25.308816783326932 25.947775196943617 16.582079671577905 19.532850407389653 25.234260977147134 23.845066457970983 22.480285232092665 14.594481987236774 19.162702109308 20.68084601577866 17.570425318703144 18.975631881038098 15.036457841060736 10.867367519144327 18.896087494672432 18.212897607584814 12.111570054005657 16.600160177438017 17.969734501051093 24.26340258945006 17.800233812343524 17.907798619057324 18.624088343777697 15.223099869155716 14.09785362970976 14.01373233417736 13.938168689223819 12.993425598433435 18.1526342693629 12.732401758380552 15.667510847689536 20.39254344539225 24.158089274433394 14.321127394489098 19.622576146052605 16.954179879167516 11.339577130394812 23.12375382476404 17.23300893983394 14.920524875222535 17.251221820070494 20.59641379184362 24.17363881063075 23.56426182191851 23.939775283767087 19.702254717663696 22.80609565154012 17.315753757736513 22.62373644835135 15.820662194696382 12.59639155380181 10.901814283749976 16.968674600660755 17.412672377889635 18.6690299196177 23.599569864207414 15.617568309506614 21.320729589465785 18.581986934190944 13.422593313271108 22.969642080619685 15.26547820672797 20.854872900826052 11.543988034702561 17.25982535066573 9.77516016164115 12.824910038753057 14.889729615271852 14.15259997432671 20.7267590069937 17.420886788363212 21.973383723035276 19.713420915064393 25.566267329072076 21.24016313396335 15.295645912179474 22.347135071403624 23.499239383873547 23.62184472827745 19.94834592695335 10.344290733888819 11.512957025716538 23.524249276604575 20.716556134713265 19.48984069164202 21.631139888891386 15.484038911581566 20.918940595351962 10.057705782460443 10.244761809989557 15.995213465016338 23.39160699005854 17.393859553041324 18.10310706075149 16.6884638836999 17.05368968543154 16.145213350156997 13.67486256533877 17.692452157928628 10.148818953559173 14.944239290268046 12.860330982082813 18.77420282473955 11.367830682609222 9.65214464057165 9.64518806000966 23.73063811824874 21.92294585248955 22.979773518600464 16.71049825108433 15.068643233036541 21.87123284403482 24.78483965012207 17.852905018313315 19.180777214643268 20.877490665970974 13.454885195682245 15.604401467005598 16.97792826016515 11.617775806056454 18.7898198822469 12.918762388257633 13.101154281897838 22.62936407275111 22.755041753731412 18.174265780402937 20.62553107592584 21.987929812648506 23.141832945578575 18.529732734178143 21.00099232597168 17.290214437640984 22.575482421881393 11.076344030739074 16.942571992910995 21.029472332620905 23.639842445550077 16.908993104820844 11.545212369735342 16.113235645901547 9.550048757053647 7.570441867123214 10.736517388664879 13.075427421496274 15.109750935573487 13.900665477096206 10.514294289709342 11.624107916571663 17.15914874931455 18.540325700178304 18.233019627481735 22.43758293946256 10.68868082032185 17.82807967271535 18.22732443545176 23.144211595956712 20.74343875230269 16.066864178275516 19.43641274551498 14.01447671802685 14.434121180991726 15.22184327224566 13.796496190496994 10.960707962518798 18.71466366098374 14.186958942718492 19.739348189799365 13.914893287687212 18.30089081683063 20.621762375767666 20.691332709739008 14.82333787894066 8.177137862629303 12.020343763775939 21.790167052981108 16.085001290054123 22.945756952518426 23.6472571981826 23.562877845256246 15.675739887887785 11.901726330342795 11.394890556601108 14.523662511980783 12.874652378901983 18.698947007070423 20.605186079813407 22.44677279002399 21.634047735177553 12.241887142380238 10.432592928535582 14.266688220685083 23.878379634408386 20.86422039380333 15.196288198116841 14.91754529986091 11.30498601368573 20.61418520868556 14.920107779510396 19.159423651399432 25.107625216481622 22.384089457178902 24.58923631249311 20.09435787877568 22.80031685379742 20.035396172645086 13.686999577913213 16.611681735244442 19.377256497990324 13.08429644165499 18.157221801454515 19.958879932591586 22.00236162942841 19.720980202412342 13.729638494252189 11.644635679217338 24.195345389148258 20.516742651948903 23.837824808398047 17.778439715723806 14.29743689486479 12.144555097602044 18.45536936174443 14.629470220578709 19.67679237353899 14.480892295902928 9.971139629411262 9.223180266488779 9.937135861776888 16.96349171565537 10.4520262151058 11.553508314134383 14.538173866819495 21.745697567857377 18.99820259502859 13.745224012643098 19.453090819722497 13.305461302107993 22.62121412794306 18.411663690607263 13.648056894741037 20.73820962782733 18.6009506321198 16.409218712965522 16.948954708962436 12.82837067443733 14.852474000937184 13.145773796180684 17.20212556191715 19.20854104843812 16.569637610198786 15.057822819998227 19.490753869819695 24.800547333080704 16.664794817231257 14.45783289401046 18.210351241895307 12.431464750668784 17.215201521484953 21.515901497990047 22.979953797559634 14.591772308873571 10.384770411883567 11.362018870879886 13.874381524731012 21.22841282879233 15.611933736794803 18.938729715799138 15.256056175251212 11.81352275915574 12.408783640125082 20.34752120280432 17.710349162640913 18.36184581107227 24.733733472486776 20.529994277227026 10.985791926491602 21.90764924343132 11.991826226796029 12.689803142041942 19.09795612501028 14.912443788812226 16.59082973646943 21.573033370513105 11.554785861192078 18.669888577974582 17.99056376531858 19.080469565293413 13.64206196163896 10.328073821773625 18.943558191012457 22.72211196292666 24.354450949020475 23.38735890625005 20.340173606427776 20.818417297218584 19.421458173615182 22.125031883570827 23.77972591103213 22.640058320595024 16.220385067087953 20.655325613610234 23.64698160671046 15.340288710479076 22.22385905663046 12.693338743410171 15.70507351600942 23.68694549657415 18.45703798519545 17.608983291534873 14.29927141975762 17.068768827445574 24.073283045027406 16.03537993175926 18.60087463371055 15.902302253367397 23.142486003396982 12.394517206344192 12.90674624941121 21.41450616781653 15.02073793869504 19.15091290550044 16.167582945179046 18.878702461486455 23.713691396179854 23.44594753094354 12.641579449205999 12.924601695967942 12.34552690862211 22.800147377773904 24.334101022684877 18.642989642636483 24.235916838647316 20.493366893766513 15.381524820925215 17.126780891748794 22.950056646389985 24.064753744210112 12.545317484186622 14.579497056356796 15.258342042622926 10.304053448567368 9.769103996798215 16.31548151864594 23.038939310134367 15.494118898350331 21.35488596302522 11.023998090751146 13.800442555301936 18.282478322610164 17.050304301711662 23.10599363068362 22.336282366914624 11.03902162339017 11.31761815649154 10.85492117572504 15.432631572616433 23.614260664456687 25.28163563305696 24.408571677775182 13.024445802498368 12.133988413822777 16.811528197284726 19.689559540783833 15.790813043406619 17.887589905765402 17.31907530669918 13.186312193515821 12.727969167894301 13.636769727406074 10.790756442166533 22.55595489073184 22.784898554419623 10.981227007065506 9.811542252123452 14.31042869744818 14.048420636268997 15.907986951423474 14.838394254009243 14.933467924513778 18.786050947634433 20.622884025106003 17.68917743528569 16.347135187007463 22.772367659009728 21.18606127062952 13.645816659448588 13.186888281460286 13.052002165425879 16.38953411467064 17.0773401387251 16.69946158745215 24.76242787816553 12.987587260739204 11.848538093798863 10.391168858751877 15.663496770230173 21.147353712838896 11.483449083350655 10.197683875750014 22.42843454808035 25.389116081469037 24.192793861675835 19.57770847777931 25.11605373623064 25.814677085937365 24.04260834419696 23.46003581091683 19.362539487054303 15.198136714389001 14.10095922046343 12.520992269214748 12.665903601030001 21.13093906794953 16.086327266472015 17.586710340747366 25.174883506967 18.980929518161695 13.437286742430294 10.606864750631114 19.953666170968273 11.35131863679555 14.614324095874265 15.989610651027169 16.642510930742734 21.89763326763611 14.280256610736817 17.239877221452875 19.55684539777595 20.425413737676127 14.369670455039682 17.769700572147542 14.883793202466544 12.657857030992858 20.418468470787758 15.117133860523035 11.785362275393958 8.708985889967419 13.863198579710255 16.40296289209629 11.089566236048979 15.165107086961942 13.005439701535948 21.528033974149746 23.979264857480363 23.55523390873954 21.79749615055999 13.068837169457396 15.633362948144908 21.185532710912486 19.095752131920516 15.43423920012815 15.130966960820308 23.908188984347643 22.171365827914897 13.328181375619648 10.40230157966126 17.9778469903767 19.5891547654546 15.279533857863001 15.30115792707153 21.520123059830315 19.36435587121069 20.477457323107597 15.723135591911365 21.432054013047804 20.739694068135755 12.106808392486172 10.156921713788885 19.700102307121288 18.60877924666114 20.966328589315644 20.378652701225263 11.660955813558589 13.93534236204539 12.130281722380595 10.384292064655158 11.427835545279038 10.416517218116265 22.30266822891057 16.760501488462488 14.326904948426844 20.281629971767504 16.378656116937197 13.217491796418393 22.82244629564299 15.591955331028691 22.467321142496175 16.599344592992534 10.937070023526758 11.613411997057563 23.47159745772973 21.643275405979725 22.23420894712714 16.15089485468986 18.97698313566574 15.677238583053093 12.24608564316153 14.703468801962279 19.00376003711299 13.960758561556524 20.66521084879371 21.28933660664829 15.153383892701733 19.17529358344789 13.066387298470818 17.635753968776267 14.117770640183812 13.129749558546036 16.248363013576657 19.162303737163885 22.87415019101367 20.826203424158905 17.220591344381713 16.69161266915358 16.691199354443494 22.89511185266595 20.504598414521606 19.563722055996532 22.803382437704244 11.80687373531574 20.322463345447126 16.81431322779503 13.577146819198799 10.773111608848597 19.228491140009474 13.906017039617607 9.438285241980246 15.55825951713598 15.824148427318002 24.68141699592124 21.865678065369224 23.575670928071666 14.754616430691659 20.858656569889305 23.20002983402359 16.127014527809248 12.687604076430755 12.29692698830879 11.248295634046617 14.296742979259577 14.469547170984953 15.123958621792974 20.790369745025973 18.78831984267274 16.49042878160749 23.563136746313816 21.999179208164875 15.187686677321972 14.184351860838316 19.502944714480492 23.860593209517507 24.125422738874754 15.838481543323025 10.289138831195318 12.964003936670503 13.322083495916239 22.911553315853165 16.98125086739683 15.532995347273163 11.210349549534724 21.143561771299552 14.841200124646672 20.496958781242054 17.298046931089246 20.714140148266427 23.092725575008316 11.284459337611803 19.6557705767998 11.293228477536804 10.30661430198448 15.297429441658494 24.47703942995225 14.192562416336093 13.811842667183672 18.21555296662975 16.864144030199185 18.917379772892943 22.59664019518881 20.626527419360198 18.48031931602715 20.469531137067417 22.444537615307986 23.987658937573716 24.46162659608468 23.168493432156033 21.99440607422386 24.030562933839565 23.193366766227555 23.838741902743546 17.182203928782904 19.801345380745328 23.27849170600381 17.626644226096285 18.76122101065754 18.01317635900457 19.95345385812452 12.352768666002953 13.7910095220299 12.912097670055024 24.565889657797097 26.10279835351953 20.90018952017728 21.25706841036533 17.658956681825256 20.81895104912248 22.95554083291677 15.135169217884098 20.29026474855251 14.698221951282278 21.57564137770348 20.768738282844282 23.402312651973975 22.93122666332036 21.16353792257519 20.260926297056933 16.864907811901585 12.221098390502009 11.926362108409556 10.253487162222736 15.738753318715569 20.66683375117225 18.957632336986997 13.260411441586482 18.029661035829914 20.8778189234501 18.76155710187635 17.890877398026333 24.004423704489625 15.658607785704097 10.359620167233807 12.323384857472728 20.343215723844896 16.892294146416504 19.253898654591914 19.541797506312438 20.2437482278983 12.657782228049939 19.22436826885452 21.539374528055703 14.339749751458685 24.708930742405215 23.07997779214457 24.22511895038652 22.44900235360349 24.887737492879843 15.596941514042017 13.158723351071288 16.283684038940667 18.35739917304467 16.563523658275056 19.41656043577465 23.716162954093264 21.199861611086607 21.67044889823616 14.597568702154788 9.932998727185 12.70118629252424 13.708338068978422 15.406754796723325 18.77000108663723 16.632575380565314 12.48519877576258 15.519908992425417 15.260089026734917 17.455858340375677 15.611604804228325 10.799955870038676 13.068092495579535 13.979550233895532 17.654432979813706 16.541657521430494 13.650538274269538 21.379508033808282 21.679286226051648 18.236646755384275 11.558528382461427 15.93418596112188 16.03261995143097 20.621523946958366 24.092058490104392 22.984168709677384 20.71473721250292 12.94503767416613 17.926436691852178 20.536662020118698 12.724967558708792 21.48981613543322 24.145356078989895 23.10179370896704 17.484750184669743 14.21654127763038 22.489788941218954 17.550782385918538 12.178622111097832 15.894342323845336 14.333026867732066 11.009909986439828 12.351095540110286 15.611569444536883 16.69350641628285 16.903627412011936 10.677129127722589 10.64674956188093 19.989665882111222 17.988459765298025 17.334116674892694 14.593171714668442 13.963021648220515 18.58229001613521 12.785619381653744 14.202320101252997 22.26301190282245 14.342135692618184 12.245086543624135 12.409102679015703 22.084448943630942 21.22109110577172 17.316296261688226 13.384279038829948 13.133810454731455 18.089133504704105 12.120520283317408 21.691381679122514 14.285450780316747 23.66440582909098 22.269113331298932 15.499066182024968 16.60757790576871 9.952677102276544 15.059607404220797 16.07605002866279 21.597832360871674 17.3728544433821 24.154570807359253 26.114188987239668 12.706501295759079 17.22632445819974 17.7679774127719 11.507426585350368 17.920612668161688 23.161172157342186 24.20183737501706 15.662133605674061 14.221786686248883 15.583915213503731 14.344975886507463 11.641090397754404 17.652681018705096 10.868160452055509 21.195017451954545 21.00882633590036 14.831915744747953 19.437632058392644 11.375084901147899 11.175818596433151 19.976996982410434 13.873306509834062 16.982302925367687 11.620863863343876 17.436275278971436 22.180008936883713 20.184234917380664 18.55680159871056 17.424482489851282 21.30125585444184 14.659401437241051 20.53788450624512 22.39555408824252 21.85237026077642 20.73191050343012 23.46097782998121 24.78836668066392 14.799834818824603 18.689707628987662 16.423777973202686 11.225978949416735 14.186299356438344 17.552610842715694 12.146572627729102 20.192270665721566 19.944839725733807 15.792559116250171 17.617944238049056 18.327800425440383 23.063578814162135 21.720932577309387 17.82812976920506 22.989700805280727 15.43692055694379 21.839214407085066 21.857518945765033 14.391135254353488 13.797096086266317 12.670515258360625 20.384278211865716 21.24702767521212 18.638172609626416 10.913967897730958 21.27684090854691 18.62722780440356 19.835409066406918 14.801884912668358 24.77837976562887 24.52237326366763 25.22426467648489 17.929948139781974 17.710842920714178 18.016904641019547 22.45908640826309 20.080341379730417 12.772691887504593 17.976242661542177 12.184202705217935 24.8026874589674 25.376735905790746 11.922952664438725 11.794898106753735 13.573765620710164 21.946773134608804 18.988384999514654 13.335569683226415 17.62745218312676 23.790287909407443 20.96993622388051 13.604733433464588 16.84910428305312 14.811643133371687 19.606506196287828 13.209879399957726 18.030021703545803 19.34391973863446 18.837460108004823 22.528150033230695 23.0817310098699 17.864150891411832 12.47460139172844 10.785823950285874 18.294927338159148 17.09713663249279 21.68965582283658 23.321764069690538 21.570945412189275 18.684493978004035 19.089398209044063 22.043356190177846 12.821537481392417 14.207498277708307 23.775606861258154 23.281622497206143 19.11089046017591 25.21039935814589 23.942197181725696 21.705136020862717 11.6516001603717 10.868913276751766 22.631740014742242 19.296823408057143 19.41890716176168 17.911543903325004 21.289878964770608 18.65908280137384 19.96582667598831 18.6717882950918 22.03736745350076 21.926237211027605 18.026935768777367 21.084621457093228 12.831996849657427 18.78801909034697 13.988986111764522 20.219006955673404 14.196086335854755 11.476492879226726 19.66594771369239 24.660867886828157 20.96124405130628 23.081728318808796 20.746644667615538 19.412804000821364 15.441212994848696 17.716691437690667 17.451127465952265 19.203225569903825 12.202679790479337 12.400307117014853 21.097221511856187 16.91596994049767 14.406439357437696 10.396139164155587 11.635237378938193 22.89625233059161 22.494613061806284 20.20020506396676 12.27436972957517 14.074037563884183 15.775944012608475 12.893817921851761 21.659955653295132 16.041966586487703 23.00902949446266 22.04853112006696 11.601853411283727 14.030794933300482 12.820067717236801 22.414659460589412 18.943636579427288 11.83559849768793 19.219173573593697 14.001598760631985 21.906530408483928 14.97921539920805 21.599282557888863 14.55546343060353 16.030044006909215 23.02300287827827 17.020357996343115 23.120282478356955 23.95119645293805 23.598773432698557 17.46946919239712 17.462214737639915 10.58323985738422 17.514229530086332 19.501511634820513 16.74605193102201 16.89877158462166 17.08361903995423 22.684701682610765 16.174460910850385 20.33881989072159 15.731137758899395 15.765392707899348 12.539906976347062 18.271019535773174 26.108840782005153 21.307778502368894 21.09326646856527 22.45766088903137 12.696422401682227 16.249143488546988 20.31013847164951 20.366760450658166 10.572412238852758 12.082331587574028 13.294130106719615 18.08954099937047 17.52100416588206 15.783863425699083 15.46241516711847 25.73108009551383 21.318302358877 21.359372698924673 17.772206087869098 19.26461301733446 13.533707101792507 16.952298123763295 18.16355693997999 24.153451904853203 13.074935969112007 16.76828388116454 17.228466973181558 16.894440915594522 14.827417262981157 22.182923906507238 13.308784185937906 13.438590577686432 15.049688712488065 19.41962850433067 23.368768109994583 18.48161112896341 18.63399665693156 21.716754712664613 11.166146481711916 12.397740455136034 17.645501637746584 9.653412087918815 16.3995257951771 18.636401465270392 15.133643906579945 22.655426543400036 20.115282117252615 16.937032653513022 11.402789940726775 19.04482031890985 17.870706164298866 16.979514064832358 12.373570761337811 16.44497374762415 23.58817962436656 25.334921394789703 26.543779529466306 17.78306043407054 16.640762340777524 13.594863585485538 21.86353910823798 15.08541576627374 16.227207405784256 12.858494308003381 16.480831741083733 22.740861580214823 22.560198780014755 23.519505184300424 22.053531947060897 18.42122443712703 20.75378802179264 15.963939125116969 10.863712423421976 16.625078438371037 23.719048430923905 12.36028597932537 17.8195818533098 15.273729079882806 13.770893036172875 18.267329717055357 22.238695007163425 16.50784626072583 9.951916738765444 15.478062713400734 18.930534086114612 21.912155056296278 13.808929077326827 17.962838592167973 16.302995529577533 13.822825563507296 20.37505337379216 19.106472804914805 10.501062460741693 10.300356911102526 11.393801485784914 16.018800942031646 19.33100707208406 11.416343004859542 12.587296921755534 16.376062908035397 20.63936746445072 12.901519445575827 16.08516559627886 13.29924280051435 22.09809972464164 16.92330654911713 19.291396655110475 15.532594640701758 21.403177830192128 15.740507326750913 16.929275966351938 12.759855062860277 19.345642604014042 19.24653207170578 13.784053135285825 15.920677982053117 23.698553828776106 12.137343710803194 12.238238014247806 16.58151012895018 19.63011804227139 21.59193399047621 15.156380519106177 18.449475286813755 13.080658648515215 23.18258320396084 18.293577992222207 13.2780559929988 16.0378626596203 16.143452913281592 14.518151570770204 13.182522774858118 10.838681329705185 19.10664135342629 21.130901286099544 13.662546936007303 16.661114254443333 11.42834683854629 12.394586020540256 10.729273084433807 15.079716562012859 20.351136356242808 19.454879841715762 17.602223386119526 15.806148288350979 13.428558952395319 24.08466100405926 22.046440336947327 23.41263382963273 17.558643333840852 17.623618223124335 24.0383595358328 22.22731440000786 17.718702517070703 11.334629683428123 9.264488873792708 20.520423693266505 17.218919244456277 12.842341888950326 18.61521090663242 16.991848824173726 15.293401775866478 21.066341041050716 22.25702732609863 12.635476975929656 15.65336668446659 17.66450643500785 20.652679152957617 23.33934643572787 13.941926141480497 22.440842632500317 12.852466489139253 19.782635280786366 17.84042658923276 15.690686865252076 15.492209311645746 21.87035006545724 17.907423606393994 17.191708941053676 15.594030453380427 22.119903464058268 20.53345752113932 12.470204163672772 18.38151321558541 13.817321825147268 17.244204567532126 18.89100493534124 11.545781550873759 13.067655280388966 20.62040316351989 12.376970894006641 13.927504825644771 17.756369393125315 19.101835222277806 14.193249451877604 18.91426211209952 15.458475686806 22.556452302317048 17.86213830401638 22.094453086428064 23.641770538995242 15.083889497465938 23.490362503634067 19.59252327074382 13.455948653762084 16.458514243754184 23.527757260279703 23.788140648120955 14.140056776025947 19.87362345580393 22.215166961550377 11.920096182367574 20.61867945883745 14.244380785587893 12.370358063412443 21.840504529009596 10.788290224430991 14.941181052788915 19.117487272827724 16.651313766923014 16.690111186068364 22.32647360839533 14.579944306813498 24.850357520923904 21.858658560103823 13.878304052914544 14.469254567186415 9.08894466522519 11.114807