# vtk DataFile Version 2.0
Ocean Simulation Step
ASCII
DATASET STRUCTURED_POINTS
DIMENSIONS 200 200 1
ORIGIN 0 0 0
SPACING 1 1 1
POINT_DATA 40000
SCALARS Temperature float 1
LOOKUP_TABLE default
11.860066053614585 11.781648663442239 13.191535891272537 15.70645622917045 13.517845396010875 14.131743509650283 12.521206550100839 15.605423434187168 21.06840335991046 18.100590917011054 15.010066011640674 13.623259346762767 16.434106931372135 19.311446451198353 18.30512875188012 21.252433906893227 18.952759808129247 17.26271525462306 20.262982090342792 22.689947033324298 18.788492184198383 14.972284047307529 11.224653043817499 11.58426086810925 12.828044256850353 13.556529578425089 15.68568558120827 12.747566786958437 17.796122312854514 22.93332487154292 21.407021056890887 18.680899787783932 19.993161543590908 22.667555638835285 22.021825488177008 17.759050336110008 15.122729773533043 20.182361521698923 15.921094367775824 19.43981742843487 19.097717452262966 21.577228161857967 21.255317297708796 17.63371569776747 20.262703256634836 22.914890246510545 19.045995438478734 14.877725157658269 16.78880558004378 14.036272493996826 16.645220197564885 16.56679202922192 17.94644466163688 20.63717582107022 21.616831917202287 22.999403507886818 17.00362657380702 12.80227429400956 14.383833837354436 11.69628204080314 13.734063980616378 22.275269642676747 23.31469559970669 23.67744159035547 20.7977291292155 17.71714516410568 22.147410687341658 19.21002194878315 15.966182944206762 13.752976990757597 15.57140719559851 20.365423843367658 22.03382370795854 22.29730918913014 20.1536037753321 18.464021460813946 19.414183364817422 17.69216166877413 14.668731163345813 18.24123067579803 16.493010138148463 13.104067752374924 14.332025905819968 18.888785456658486 18.594620488078185 12.8659793845604 11.276810834502255 18.62298857044323 16.069756249786916 15.157093039025037 18.56321380756216 14.683808565497324 11.87456017833241 10.709834545531061 13.317202247300171 12.00050229764061 12.575821505039828 11.28773070707339 15.182904960263247 16.249127054907582 15.09512382004604 20.35123736450521 17.86537142532406 16.273436227545012 12.550712419146706 11.877991420934025 14.687067823551105 17.09815380705911 16.787671763243203 20.95687209534057 20.85174634764328 13.67442938623134 17.652862784175845 17.153983179150863 12.829780728234972 18.09644671312658 13.051262299897468 13.295628651799765 16.034718508045483 14.658380691486215 17.027994624975914 13.918637265316894 13.701663553234665 17.578727768040267 20.37314839207143 15.167404447626016 17.61658460089702 14.087808659766647 17.260028855961764 20.282783750949356 20.006278232818488 18.293603971110812 16.391558506315704 19.105594239536416 23.92996527253614 22.041358081327065 19.537044709989328 20.369284806436053 18.73183503625638 16.43607742789175 13.555132940957773 14.869304669302377 18.4580378352293 21.459892267211526 18.286329078981726 13.028485966452505 18.75612548694423 21.232335738900467 18.674103876650754 15.691110312795303 22.127721125164936 22.00172917458936 22.5876494139377 16.239024239954137 15.594855419728788 16.484278783897764 18.44819462816689 16.40653220038361 15.851133032154975 13.55317282518996 14.312424885399128 15.785411220584452 13.330174666415754 18.65556871135629 21.939841884560888 19.52781186822279 16.75267754006681 14.535565780352249 17.242223091788794 16.878754112444078 21.804781620315925 20.67077719615687 19.022832987767845 19.462146579637427 22.51683363876704 19.34778990292572 19.993872173657376 16.247422793078755 14.406072611285094 20.720770565176466 20.60667792094146 23.10891372348636 15.446315945851817 13.122445428583102 14.175025086217254 19.54599579725758 19.713281813548747 21.625619237720144 19.10004831803558 16.87664097737164 13.446792917052074 13.075667038894858 17.591061090235495 15.535546137477965 17.368786386492395 14.506965893589527 19.583257668115966 18.73233027899203 19.394389076247897 18.129175667649427 12.614114698542563 11.35893808549802 16.49508241944871 20.10750208274819 18.63707144934157 19.989813845485727 16.25714983940957 16.596040053915203 19.63151256337505 14.867069179936268 14.798725453784337 14.594937462886268 17.234322996040678 17.61919486235036 14.715395644874686 22.07152660015313 21.393064443157293 18.968852773790225 18.73449216853808 24.23054457379304 23.103489509170426 16.133102419024414 13.903030397219316 13.123307666539025 12.79154143330072 16.51102870706636 15.862605134094224 13.645285563769626 14.187496411570015 15.784194988469043 17.148256007027143 16.41857844580792 21.637977691258552 24.07255774962453 22.538320581553634 21.814333255595997 15.456895693212815 21.593636063260927 19.64331043494015 22.101014966546117 19.02698047160822 20.93969926022551 23.965637025140342 22.77639136520847 21.898173247187863 19.975312676420735 14.165718421893576 15.326137628363712 18.341347009391942 16.924679221888518 19.34213064613019 22.04751300291443 21.889677695610807 23.474934157757072 17.48295489487901 19.196568869340386 18.133366228515655 16.852442906929856 16.314162422368998 15.166421889662635 17.634974037579283 22.658183578792325 21.637184246224933 17.856029635683665 14.513094773135704 13.203547365311724 16.28384972670019 13.507459605421365 13.412459526046394 12.893500973744569 16.786583745945222 22.881805987758604 20.778938004780503 22.397755450141606 22.769749558207987 22.11408253892205 23.149102608907352 21.23156865111922 22.02966912996499 21.93979091064618 20.98129752748323 17.339258390248155 16.91294665084088 16.37614543755866 15.544603625707778 11.918058707487972 12.054117142083316 15.682373110817707 14.146033324062234 16.558505520681496 17.124662264077894 18.337601596525857 14.010546269294055 12.74185138150382 18.762321975253244 18.4965248843594 18.67720173438547 12.678813922165288 15.695387571655559 12.416899478913487 14.933986938904878 20.508123057693815 17.24791134428683 15.134950478686243 12.369066000541647 13.392163828918703 15.499165223701045 22.652851267098058 21.453105766039542 20.075757571907584 22.41978534434554 18.41776508586529 19.57884968486669 15.468091196487572 12.16881314960071 18.11582601884261 14.154315807661002 14.92829243624381 14.532166660216843 16.90033758163985 16.38842462372662 12.285023502982192 9.875015959626182 12.22476289017803 21.08900549849568 20.715726623218956 20.889447552296883 14.199531512839412 13.373777849984071 18.196493609017356 14.531126518507547 13.998453984224637 14.766242478889568 14.38547223133789 20.072393646345066 19.268918711715685 21.248087420191915 15.86844457196992 12.629378204754552 10.985645854583122 14.204295579770207 18.39643952568386 22.86542380403343 21.32916288828597 15.867330986178422 15.198738608250013 22.644842074938605 20.929360920749613 16.82802908319239 16.284355792723535 21.35537831825117 20.20832939649632 21.761148882528392 14.741848070723965 13.493418850259873 16.329825453404503 19.680706021324006 20.56657663733202 17.115037713753463 19.736641999229573 20.642935611425088 16.489169156269114 14.054937978586887 15.2274339712356 18.197215775196366 19.34538859194396 15.021801279351893 12.502906939750662 13.653426206191483 15.506724749215156 21.91505404404076 19.025624451902154 17.829233571195143 20.662364297562714 20.6655796181489 15.030750021248013 18.070404350782525 20.709138006917332 20.91975466024136 20.60021605087195 20.75143628051141 22.284857297143738 21.223466843664678 18.741922195687717 16.74559775285743 14.92278335030228 11.740233469095685 14.409324748601046 14.744939481558559 15.194399253719054 14.283292402070316 13.63554797684648 18.13762573613219 16.736072619434836 18.7057502051648 17.48935743666219 16.87954145507312 13.998944199643018 18.31362102636268 17.766566063133748 19.403399303301754 15.548423516449251 17.375774711980974 19.39536245881127 17.630821431381367 20.17564473019342 14.502231977544593 18.827650677211277 21.829660251488374 18.770089576111875 15.295994632734011 16.81184403760185 17.436158422025372 14.088405239633875 12.516679345480629 16.64433707528257 15.223389761514895 17.681896935638374 19.014347784051793 21.6621870008509 21.773350409186357 17.305412299235012 14.823143435179158 12.075638977996965 14.883717907715713 17.387921700034898 14.993096923972011 16.220149680003363 12.514148732303031 12.037596188550102 14.39598638489514 15.406621424438079 17.483117316171384 22.57978486627965 24.395116741536604 24.32282145809479 18.031755092727483 20.442654293226408 23.273855851859736 22.595900134942912 20.840701258622268 16.991481212191598 19.041956960840388 20.230135230452632 18.750243106458758 18.833305796589386 15.371627500266559 12.97256723414954 17.453192777099517 18.06018219200852 15.072619993216726 17.82319478996252 18.861122922027814 21.961845008267172 17.70792704095335 18.031293007127292 17.850925577195767 16.050161056262684 14.617772793766829 13.829087821421112 13.961221442080303 14.585318366761266 17.404209329300798 13.948971943294351 15.2532490475605 18.61084832709023 21.394698127861112 15.95947880064498 17.55720185133754 16.280417500631565 13.96987023872048 21.29351772417718 18.054459804672057 16.35961871886131 18.38259352454724 20.568158303437375 22.85928590134435 22.56675186358693 22.249586076941128 20.10536874282069 20.870627572704933 18.213487038403557 20.387713506415608 16.264099517274033 13.535251326399795 12.705095012926911 16.5615100573301 17.238412847082508 17.908985224092383 20.78906164194087 16.764017435265846 19.77949259319075 18.05526499940901 15.545228572024469 20.138133876750995 16.408719016198376 18.38650289052965 13.299438649913677 16.26502994758892 11.794014703098824 13.628718161574499 15.432882990826961 15.008703906469488 18.307160293481832 17.603932984162146 19.859007441684646 19.699638741333203 24.01735100947845 20.979779939208505 16.837526991572652 21.521711140991176 21.51447623462929 21.586005759178096 18.582548889291225 12.21499812678536 14.044142127267701 20.52640574142905 19.22257667176868 18.92861895577737 19.920596592335052 16.900561043085112 17.56439452612434 11.16906809241279 11.942574693168643 17.535120578351513 21.93101467026825 19.088723982708316 17.702670274380093 16.78880354059109 17.369325944024872 16.356645054759124 15.262311170933236 16.77875080425541 12.535826230344677 15.687792448592367 15.39588453504137 17.731036885968795 13.416830755560994 10.766363699330375 11.777897258983783 20.835483558619575 21.23775697624131 21.71880762744891 17.603811381267285 16.256173268986085 20.674628263601 22.773648038860895 18.9991346754526 18.618144049011313 19.508111746389314 15.420409074582349 15.974778145681528 17.379075060540462 13.579639028430446 16.898980803667556 14.368060007302097 15.504525900564328 21.514362302364056 21.462616579801125 18.58746973479353 19.74104772585483 20.251845873398132 21.241901798916615 19.225613764212866 19.981285511596724 18.960068381933738 19.830142408565084 13.397684157347241 16.502918101540455 20.180820673475772 22.35261055863907 16.958514937182702 13.558501991742101 15.592648807568608 11.588558444999304 9.40175456190991 12.30225492545324 15.026579484754526 15.83342859947978 15.264422943850414 12.596318453560684 13.742888377569003 17.424237385476314 18.397079503059544 18.860170410807267 19.882574176549184 12.6085792915999 16.05371111645112 17.298884778575076 20.546188986550796 19.914087114630426 17.39430171019061 18.902155558061818 14.902654452074591 14.94120338189773 15.497201690350014 14.685234367586242 12.869553781447825 17.52824440630442 16.137784559858588 18.428747584188436 14.998950864054375 17.45320696851974 19.24251152379488 19.708092733114462 16.256967946884775 10.485522203728507 13.339399079474452 19.58212802511429 17.355738572983096 20.5900076277917 21.66479261528853 21.132458013135523 16.122139443712147 13.250864265719526 13.157823235089221 14.516075655629976 15.20330841099171 18.639783369466212 20.023656418544427 21.067689977567532 19.419196774583856 13.787884033239601 12.00477553069148 15.273668171577535 21.699942940556387 19.029498337341398 15.513264671956986 13.993634074460669 13.00383173448256 18.3001372823709 15.563448304787693 18.2274469457973 23.567271366622506 23.330394538487344 23.91369280243725 20.520395575282848 22.13869137739662 20.784284369392047 16.908918261711605 17.874863558533242 18.218486483764934 15.113800692845258 17.74460300891941 18.97519765640796 20.24502082566722 18.82060720413882 14.413817841820729 14.49670694217461 21.868629116288616 20.03037150303374 20.997393433916987 17.40995523471885 15.903194411964277 13.740133292049967 17.10273886812643 15.914651339235116 17.9794144324572 15.194639813176714 11.487903976136199 10.935963673072875 12.095477229645425 16.07146047573917 12.063973454558209 12.905984507501776 15.573277928800783 19.94556833822346 18.37827664354134 15.458555166166919 17.28688411935528 14.278589682288773 20.24610689424615 17.978818640883436 14.854654812122183 18.93249934978475 18.360228622608332 18.02529109221044 18.07320377416447 15.819901406102135 15.915567701763518 14.819368207766301 17.01399609209082 19.074414444217716 16.895096939857353 15.528531255279946 18.300431491526872 22.276548943177758 17.800233209422434 15.453345068625127 17.043624486260025 14.461392101453908 17.72553928164507 20.112334340150156 20.30332421762992 16.37697572803262 12.694047398680425 13.44538404794602 14.52285149818386 19.350795859257236 16.2716381495307 16.91124237859659 14.814968629439516 13.377067808552566 14.622254369900293 19.095333649109076 18.514329741355514 18.495038783586725 22.432127567076616 19.21271985920486 13.483264303876265 18.877923880439642 14.215686802412284 15.311985060570121 17.949289264281752 15.150447788888783 16.766329429936402 19.61330866912082 14.473183726454048 18.376483773271776 18.24162321157647 18.421727501007027 14.850291100789457 11.799751536022272 16.949101835065708 21.615638482024764 23.481643405822954 22.356857328322665 19.93776072638106 19.878674866826252 19.07097417619915 20.225908671756123 21.32750671607975 20.888259374064106 16.58987308929452 19.71667868107032 21.095449627429044 16.972636063343504 19.174168614675995 13.740970934794104 15.775245970154124 21.131025297184756 18.628320586418823 17.82577860744267 15.803733335145607 17.84299505823376 21.95023423576797 17.97725173213083 18.010544143697242 17.22886511417163 20.978908713584516 14.682294950841854 14.798472785800447 19.473237567316538 15.55060376381995 18.29141777093579 16.460393695676697 18.03171107346313 21.59151171407516 21.643096365274175 14.601428195604266 13.643675970878224 14.732559990479016 21.11400188191866 22.854581123718095 20.18243646742304 22.48461880276389 19.87184095541137 16.383640127032514 18.060322164900793 21.389183371501723 21.473017434559736 14.31040900021577 13.989745291586438 14.629490559023573 11.351396913919666 11.086124686325045 16.08952293937372 20.121726410484687 16.791262718206717 19.197221838104497 13.423724897022131 14.147813124522282 17.245750253777434 18.11268174623988 21.899230349474976 21.146103825617363 12.878244233572891 12.001072045985635 12.451756929753309 16.40333392607036 22.24468499849028 23.01463761779676 21.68148232014821 14.216256970661103 13.891337904286708 16.388615883647123 18.369164279142915 16.15326828232842 17.94051617568454 17.81286200010427 14.683688908243408 13.793821289455328 13.779157943676452 13.309040685438044 20.39776792702316 20.689997440732288 12.328249059424005 11.339766845191402 14.960272957089979 14.945567354998921 16.65971562664911 16.687267669141878 16.74735007800387 18.280757934550863 19.177453999207025 17.714865355806023 17.611661149338815 21.121549257546498 20.502837377172273 16.104734464405478 15.492768417577205 15.404870114141959 16.51465914003884 16.48469765299962 17.56208282350352 22.307126996822454 15.30645932479287 13.131089311921555 12.435899314409822 15.670691567062256 18.58194503530076 13.045251172068967 13.053927466489252 21.857725170114954 24.580155838860414 23.515907454793783 20.80214623432339 23.605601057891988 24.304062257154403 22.830906221690384 21.572894258047725 19.198128456219855 15.567185253919382 15.303085981477892 14.524377927284874 15.5554862382441 19.798207370923183 17.057762064664118 17.967117816376017 22.529458893802822 18.4449228138459 14.643697609097545 12.683740582481295 17.329595440771385 13.564218467380092 15.270249010664447 15.785367784265272 17.359214000512736 19.664161582263237 15.31896582077146 16.49705410428519 18.656720150050873 18.713134049869545 14.548341102109827 16.06240622908436 15.502826898388308 15.070360475986865 18.874916783409667 15.738110717154035 13.436143542914014 10.823866065711995 15.01759900202078 16.362801365802536 13.004939439247876 16.15202098420432 15.801597729121939 20.722072216202864 22.678682000310946 22.255572323026342 19.735218925010358 14.377771534609684 16.21775843054094 19.842340501891652 18.42925721836589 16.333614847635687 17.323966979993106 22.488694075233408 20.681759262005748 14.315523239254347 12.361859880232236 16.373030885210348 18.126773283862008 16.40421526159597 16.925224329448866 19.491153292949885 18.014147194682028 18.43749404565844 16.507635111849893 20.126210003725745 18.840309080373643 13.43577881946302 12.1690809628263 17.328271060784928 18.09144362051314 19.921544931168466 18.75034001547738 14.477363203465883 15.547539412202829 13.758599181813684 11.344998341978792 12.822617388278811 12.673569302229302 19.53356082247203 17.880749250995514 16.146067239965266 18.936676928912334 16.692457552944543 14.911100562739588 20.358458237560598 17.005329294568856 20.61663891673059 17.061212475927405 12.960485184352116 14.063912408426708 21.187329445682302 21.950132381306275 21.185809501775864 17.10197043013275 18.171781541054294 15.961130403502864 13.849379359767745 15.617129040945613 18.090303639459265 15.697456820115486 19.55912447622669 19.597432016733528 15.862217616451447 18.323190744468256 14.677799525364419 16.687738080348634 15.350269214023578 14.415266035762338 16.549628268631274 18.146411627990062 20.769282799375837 20.789203389413473 17.291420865353242 16.524261335203377 16.972167846941733 21.65074072168291 19.872958698854262 19.02485241395286 20.225660830347632 14.257632184867653 18.6586052349852 16.385420793354452 15.004479287821228 13.829000840955464 18.658286093734795 14.863431000906209 11.705222005408585 15.01192406913676 16.757083712082796 22.33658316900509 21.318327992313122 22.207982312404592 17.159777792208985 20.23889309843933 21.780823465134098 17.028683754268737 14.667136107374946 13.084063244566817 12.19017750957396 14.490571540781955 15.027066057017102 15.922502727248721 18.98244442368192 18.51361526674099 17.217652024198177 21.196011079982163 19.30888486505254 15.738506527957064 15.079865357900108 19.32361392066512 22.792898985238867 22.031163451621694 15.954132188559722 11.527891825798086 12.651572029398096 15.017880175936446 20.55669814595589 18.107618711774613 15.926857560517403 13.530386202452165 18.781334219817058 16.630621133155834 19.294056798983693 17.835997183515627 20.107977738921033 20.36754813595649 13.680239048247705 17.655561008739273 13.434032110533963 12.49303194952747 17.189864087418698 22.145631805831258 15.022864748587107 14.384292860695236 17.006420559916982 16.33517729538736 18.189293196140508 20.556997199128563 19.24954586850337 18.972438370770217 20.27230378627155 21.133151445195537 22.279928670273467 23.254291092988804 22.73313236544496 21.357598184284637 21.95202576030486 21.982877155326825 21.522418745561456 18.455243945473004 19.77387123392639 21.443551269984845 17.435494643999355 17.288571455561836 17.629864712127603 18.635398336668818 14.62542410824741 13.473217731690193 14.75871861579256 22.650229828254446 24.48869114745359 21.245024716224453 21.15204065280834 19.81875786862342 21.577121612401044 21.623136992227693 17.406213994599796 19.064015239489486 16.691947393427558 19.810983303880516 19.41579161562212 21.26707761538788 21.398275020871846 20.919338692568754 20.131477711776483 17.149518481237152 13.410383182673893 12.43351421870415 12.362402150605607 16.278839297262646 18.362658231958186 17.965479451522913 15.585535245559576 18.01596570934504 19.635880208532143 18.202379217729955 18.04200912053929 21.35921972339541 16.184868778500434 12.499049403846291 14.183055047557788 18.51823420545753 17.600555813787107 19.367588867815176 18.83588376507526 17.773461704543337 13.568597193052016 18.009995709419687 19.604604447562302 16.451872364372672 22.293657599314 22.034226321398066 22.97148455632903 22.464731337787832 23.05614678506446 16.626908234504455 14.124679585303884 16.877456887353823 18.683671516243965 17.64721824187397 19.687727506678282 22.153638349504913 21.47334931757539 19.897528905622988 14.562723702133056 12.170404748373542 13.861597931942542 14.996466705039984 15.94465800701177 18.18220081551506 17.144442902237138 14.710830572295002 16.10465193137604 16.318090721834537 17.85094738390286 16.127757673965302 12.73632124958952 13.021278702567853 15.143067048268344 17.013066648297652 17.113272072441887 15.371666343644982 18.75693219012922 20.05343592101129 17.882769629853925 13.644783254454017 15.888399954953254 16.48674279705035 20.23760327214794 21.897620801108356 21.318468835254336 19.73336526399576 15.20753406656236 16.795873913495516 18.85857459640134 15.560119961815971 20.422213258442348 21.712688456527594 19.948233162881216 16.69309712769887 16.99388856572274 21.143728112682133 18.152925612240328 13.78964622235883 15.54130413375137 14.466548421590838 12.160404310568088 13.81568540214443 15.892150903998573 16.983569929324982 17.12286723337556 12.772430007427472 12.593897834904222 18.076559440509165 17.932690726428127 17.18952177806973 14.75454850588444 14.877664726100372 17.026390465631746 15.014495902299455 15.965006144852117 20.362837121565082 15.345434047035454 13.601701226395418 14.913196607269672 20.658648034933126 20.837251641639405 18.276033664981355 15.720709427129195 14.269993739696213 17.123649087801663 13.99869853754567 18.790181290379024 16.093707073710334 21.242060514101812 20.139837500292202 15.884272933536513 16.310373444336207 12.676238950303134 16.220877770906494 17.145737906333085 20.186642572684583 17.860745875533794 22.56870127854011 24.028485636316173 15.814889359416997 16.97149647450183 16.93269045752396 13.038326215870004 17.229271517625648 21.292898082422422 21.715453177882306 16.35441072772439 14.875704774634503 15.395219311278554 15.506632736678586 14.135298682472335 16.153351838808984 13.51528738216017 20.33114217403491 20.704457113044935 17.374517834923598 17.788949867170626 12.915063662006268 12.59191759625811 17.662205123981437 16.015893239494428 17.00930233543823 13.532886765079 16.70325962677331 20.54632550554154 19.259751675046264 18.396483911327334 18.221200722190364 19.41258758232106 15.69677960225961 18.515914680528276 21.20223737653608 20.72281078747191 19.79593319291463 21.91148249752457 22.931242939879677 15.803642356997184 16.990680084271286 16.26147339552616 12.681374738357295 14.95758632497717 17.313451477016127 14.757481982827452 19.393496513719995 19.59747023546201 17.184889335834004 17.6963960133495 19.289429737170284 21.89574307265844 20.94086112520659 18.702310259908113 21.12663824410721 18.299310454448865 21.142501713424625 21.293008499593988 16.443472734629434 14.712105466318581 14.429698739537642 19.440971629850328 19.902530173460487 17.327269853476654 13.235316061954498 18.84941165087505 19.797757819083625 20.2573330458729 17.890248692818556 23.053159723171785 23.16997332644439 23.350433637586136 18.79595555509016 17.089028661353765 18.37115450928829 20.969903117713564 18.996318840075272 15.289281637797757 17.37651655900069 15.361904283012622 22.46022148601637 22.860701927860088 14.271811577376607 12.214288982995656 14.18544299071104 19.20703570867045 18.493521610333676 15.229287187318732 17.856656548905463 20.93334342353596 19.438753268472954 15.993780406548742 16.827861529455337 15.423205147737441 17.898772969934857 14.415411263866538 16.72255605535482 18.319509170941107 18.49952722968869 20.515265735420613 21.23642749778454 18.11809835027746 13.81920797148815 12.577246028877443 17.167388618734808 18.381591348136183 20.328758334078287 22.39338647087533 21.011526246002724 19.72510759136442 19.397545785669013 20.492707498381186 14.448388254206094 15.441282625501456 21.357837299213887 21.3795405781081 19.523017726013975 23.433846543955685 22.376587341057512 19.936239269204048 14.168938560948618 13.507058677998602 19.63751849468798 18.385287814007064 18.445731594070033 17.728320175756295 20.3602550620057 18.696734078750442 18.364423629973107 18.37283882851104 20.26632355284665 20.2121168749342 17.794479067156637 17.994411315680274 14.744698892279224 17.558239647801503 15.432161656943274 18.23690517756263 14.373334107503213 13.583423554837475 18.549793642322307 21.918873271239285 20.327665118744463 21.297729072300505 19.895759845447785 18.944259811452998 16.891878332624604 18.63984225250315 18.45413365576435 18.22076333359191 14.22753649053965 14.717785222827672 19.356389218617863 18.007070162751653 15.72626994697844 12.504311905245189 13.138111496160722 20.481542564389624 21.409313475021676 18.759072377585976 13.986609984648437 14.59588724909763 15.273788559152614 14.627227750918061 19.268766751579758 16.84410595612919 20.68906113578726 20.002769613426068 13.818771303629058 14.473622212239789 14.792664121928556 20.38350474041521 17.874431700908538 14.26693068250275 17.41233824154771 15.709473913610367 19.012289670400193 16.81406957762878 19.911991730295437 15.719992519381192 16.235709010703285 20.5598067235569 18.826524884478896 21.33311754086428 22.254952293912897 20.949949493827486 17.469815499707384 16.94779940507764 12.516799544291736 16.91972094021506 18.507568311146514 17.301371634336846 17.204792372662702 17.47243119093352 20.277979958014914 16.42533448710109 18.697110617511086 16.33722263045079 16.685180282807547 14.811985416942655 19.43236895614419 24.27995879851166 20.433342031466843 20.790262508566514 20.40879524720295 14.18672105322096 16.594080158081745 20.28294194745834 19.91813619682422 12.914848976907326 13.286840651638277 14.669126295099788 16.721530091519345 17.05417669230419 15.91220705451889 15.859891403223964 22.977424071445878 20.514855846590795 19.78753548822615 18.281668377528845 17.547810157268668 14.608587784347064 17.350418064367464 18.009853718857077 21.595911560921945 15.32996470189377 16.35788535940542 17.238328452004907 16.325202417945206 15.7108471391685 19.63926238339449 14.94553506707746 14.09869203857569 15.648565063896577 19.558934461137007 21.903373189881748 19.43735027924906 19.59080816875314 20.344468854057567 13.201009245227143 13.944795936903798 16.425435024306246 11.605755170370642 15.558029971671393 18.00418781661671 15.961554937245921 20.204597453164595 19.6060456526852 16.8589262154681 13.633866175738959 17.815865021883788 18.667467164705947 17.57990533092321 14.10417093524751 17.039873598948784 21.19108881976021 23.520169439084622 24.583713371751436 18.810907273487302 17.1261347958159 15.722710483514481 20.105840157608867 16.113657686602984 15.956140783719691 14.482741213904477 17.76461526211911 21.25548453905321 21.690157889394996 22.003191931973898 21.46773414175211 19.03187986017437 19.712948507515417 16.091870802138658 12.862434169753508 17.00354773730366 21.67905127880599 15.08554458258497 16.823259092400907 16.483794032535933 15.651155237133755 18.90542111547345 20.78047885865781 16.19409583760191 11.778945364817698 15.34683310239582 18.09774958817499 19.47830430475202 15.656137482257785 17.414858157956928 16.49626780721697 15.208664316929429 18.452834971895015 18.14287966861904 12.145203880593268 11.836621423678078 12.581073193552848 15.765682745486034 18.06176053917544 13.835941208499564 14.341810114062303 16.692718889631227 18.388987314792193 14.115734424942495 15.326876953989812 15.536056886195945 20.662772597366693 18.66857643047188 19.310206904000854 17.17020577591039 19.456805265187526 16.59280338009274 17.219672285058497 14.864253488686401 17.774201996582853 19.037608441118135 16.43373369439938 17.163316973352533 21.52074663308552 14.737025365947455 13.561428995755016 15.685664385654517 18.75876004207257 19.89018162252511 16.008747432048196 17.17361330604601 15.638661726938567 20.59599901490076 18.13894911164324 14.836399937426187 16.073321305663235 16.783294873012718 15.862737604497108 14.371627640023197 13.164940535333272 18.21390436352657 19.80905823681536 15.676032754592997 16.699938779680465 12.436233371719178 12.01019292735481 12.579580207470235 16.19302748632466 19.756322198932455 18.85508575900091 17.692268779315008 16.803719068388855 15.982604208427553 22.22893726983394 21.85278820632395 21.26926667830801 18.060992147180368 18.121409818979153 21.782877210265877 21.04788939114397 17.875285588260272 12.645726242539824 11.066020386751308 18.07602506965139 17.55584753880666 15.649222080791507 17.717354785218543 16.55743794826434 16.193280904772298 19.425684027952407 20.13735709236609 14.710807762913817 17.008599217669072 17.88393329995384 19.151997729491445 20.3917989735603 15.695722110192303 19.492308231546975 14.998469512523474 17.721270699303947 17.16840210102684 15.679322642108966 16.101770638719547 19.89791632380508 18.75974745948983 17.360105470263843 16.7199167971997 20.734973617529445 19.149190571368475 14.922595649791608 18.015311569497186 15.482694077567475 16.66742969802808 18.056895697874783 13.386706917878819 14.695999791820201 18.35154527446744 14.818955895675803 15.732299374806889 17.804670037024774 18.114473642384777 15.249616118232305 17.662339156274484 16.516070870426468 19.678507025121185 18.354607373609007 21.180785177565568 22.374902814445633 17.744699984961645 21.65069420583314 18.90190850406812 15.092385655397283 17.00568451235384 21.282103949873576 21.179720157316023 15.411048556970762 18.084757780084324 19.02166433636911 14.46055182818731 18.778406535135378 14.9387926462818 13.577573652351973 19.20682119105698 13.616966267215869 16.18408850517583 18.238645594262422 16.841776999384525 16.4413776203129 19.47606657875412 17.274408829478936 22.861177271497233 20.562904561973557 15.301641731144125 14.785546855142591 10.88928678073711 12.204524059310941