# vtk DataFile Version 2.0
Ocean Simulation Step
ASCII
DATASET STRUCTURED_POINTS
DIMENSIONS 200 200 1
ORIGIN 0 0 0
SPACING 1 1 1
POINT_DATA 40000
SCALARS Temperature float 1
LOOKUP_TABLE default
11.956862225299512 11.814720593990874 13.236882384426485 15.703278954691852 13.616874806640533 14.187170604841253 12.609368151627448 15.614237243011384 20.935511275249567 18.04048197736427 15.02206768248553 13.68768384011027 16.446605267063045 19.25477569276362 18.31242734477027 21.156761921066607 18.94620933130464 17.355721957780187 20.25587301915092 22.59660790785496 18.82936108199266 15.008415636263612 11.334477577290594 11.649506679289054 12.869247720006044 13.597674401686533 15.60514728452973 12.84103866087824 17.783265238312683 22.794766394381547 21.332713154960473 18.656672679381874 19.96558889055244 22.55768576547427 21.9362500321481 17.778975459731992 15.209354346967695 20.1214731804825 16.069652299008926 19.424016840665455 19.141675391442107 21.5381029828181 21.193125737125495 17.70441316065888 20.273756639987976 22.819730334770604 19.000488942272828 14.957966971613184 16.741793194395918 14.133659473252271 16.66764858912041 16.65523363364612 17.963315229509988 20.5876929715552 21.54933637539077 22.898169029516264 17.085261337130405 12.935625146361042 14.387081913176614 11.803989662016633 13.825349663634409 22.160006303998763 23.245805821207018 23.549347996920858 20.702209989487788 17.753146353282776 22.010559352055413 19.126912720634007 15.927679252611362 13.777733230090526 15.568907295335713 20.302536595511746 21.971242766559374 22.203352414622813 20.116776031299125 18.459027667437088 19.365466705942833 17.734655978364895 14.82595577574494 18.233985966944076 16.495732702986768 13.207838550712932 14.395492433343673 18.796410294259307 18.518893874728846 12.916571870936075 11.37236828537235 18.455234109577134 16.105185554811136 15.26356902947897 18.479196220893886 14.748927090189257 11.954077950260782 10.806625671221493 13.34813188844727 12.079576496391494 12.597538106806379 11.362873563624586 15.188222570984117 16.219602529482362 15.192386471822738 20.23634107171548 17.848431246145058 16.237072911295574 12.589878450097777 11.957977934580361 14.757744903878988 17.162497657215734 16.890796860940196 20.850416314154003 20.76280837618404 13.822717980854001 17.63834867120726 17.128932924964058 12.959181715474951 18.021857290767098 13.169788301510795 13.376802836384902 15.984950528144617 14.743541851213992 16.928915268579672 13.909668401354853 13.735545519489758 17.539404086748192 20.282680433522277 15.289814673011943 17.552613102281626 14.205737326768604 17.245432489174092 20.205998107654224 19.93464687423039 18.211709603973155 16.409820280470903 19.05420317984748 23.791071246242197 21.977171798457654 19.560004225213095 20.270073859476636 18.630149029964734 16.3639547683266 13.622053365169215 14.936239105565896 18.520769649084208 21.3472149476881 18.234861915979923 13.183606016928438 18.75793601148448 21.138541154899094 18.686842775553902 15.843068062764718 22.013359713770857 21.96239978580817 22.512344841163035 16.305310483747004 15.58812222917847 16.515536684424884 18.417666416475623 16.48297243980078 15.856088384243536 13.658793257531455 14.387461159544749 15.790947974870106 13.480628901623698 18.644217186132177 21.826712087514256 19.485134844359973 16.717344714302676 14.555370762903602 17.19295220247058 16.911794928819127 21.707261324979044 20.63935115628756 19.043944390356028 19.50706179902253 22.424604591828853 19.34381181428257 19.903144711931564 16.330394244266184 14.551275099230057 20.643010149293428 20.608242692050784 22.992991476431406 15.57381525210616 13.263004391046074 14.251948970108002 19.418300381870107 19.626304321392322 21.49987272647537 19.029253351354452 16.859953590326143 13.51134180676516 13.122939473919791 17.512125993886233 15.599062830917656 17.35278066511717 14.632028820976412 19.463033605725766 18.725568237039397 19.37259596547592 18.06462573241262 12.713439805656341 11.468973255056927 16.45561663038576 20.005541725005983 18.60404841892417 19.882237386952248 16.242956770103653 16.635415816900426 19.58986378929255 14.98539559784164 14.804457108504936 14.635821482712714 17.205794052985393 17.56792277117382 14.83190511467834 21.928717846849082 21.289507154866875 18.960820350858185 18.809879754016336 24.123223947960156 22.988604824665632 16.18062048479276 13.899951246976144 13.101920076643728 12.853340761350406 16.446573537242255 15.836451896490617 13.689652321345102 14.217394071081177 15.815893923717184 17.14238357550669 16.490572857080682 21.552132734160157 24.00389182741882 22.55982609064083 21.74253080606187 15.604244407335477 21.487142840161273 19.686474030036972 22.024034452583535 19.09569258212046 20.91772455852447 23.847145192974562 22.702612322605617 21.839892821347576 19.95442104648572 14.296280417453131 15.316665701460098 18.27262128109022 16.94549137642825 19.275345744440827 21.92183043440711 21.837390735229736 23.35565332564506 17.603599318936382 19.195176290950858 18.117067218647758 16.81134483066423 16.271800639751376 15.154510077297855 17.584773984987628 22.513183698573055 21.58402805781077 17.879555375786424 14.60367653398799 13.346654850609573 16.33502689549154 13.615819321226258 13.47520459875164 12.980085312428594 16.768286240065635 22.758778381430965 20.80145893409459 22.32390138684574 22.689439928769097 22.079029556678837 23.07932970911309 21.236682757786784 21.949379132786913 21.875774934981003 20.908472496501375 17.337806044329255 16.920780217207668 16.397203972561122 15.527060240274713 11.973034310841237 12.126339983501364 15.675693705221711 14.24238819215353 16.568333802545297 17.141909157115133 18.260082629585423 14.060217200080004 12.822456639864695 18.658766220142258 18.4151513392198 18.55149029703099 12.761258951908957 15.633008551878646 12.506948662442616 14.953116106530961 20.367458321771302 17.243166379197092 15.171528198197347 12.461120957629118 13.452529576630567 15.583515831362014 22.527414974476915 21.399942140812534 20.089400171004264 22.331663732035793 18.452929888931408 19.52694294572909 15.524209497657164 12.268347584320187 17.975830156065467 14.254361040318692 14.94320761670852 14.618799668625234 16.879319764051903 16.364026806304388 12.371087286610845 9.973820501629211 12.340625613764216 20.95393286339405 20.677866279977067 20.770075317401645 14.292087295690113 13.503275311168805 18.124204005291322 14.635460166575442 14.067048666250063 14.791135134995322 14.47485390803553 20.002219387133085 19.28573920007611 21.122218372180676 15.91034260096056 12.687725968185768 11.096696505113801 14.273850775377841 18.39234975494998 22.749831330638575 21.253960957141437 15.943341785176322 15.312941936831718 22.515627122489107 20.88922989964447 16.89996756625605 16.366807855620873 21.241571339410793 20.21092656584697 21.63987194664424 14.802906457906735 13.589337193724726 16.31689707189616 19.601969006665723 20.49107995421699 17.2066058876885 19.64616247811201 20.52001102463561 16.536953696858294 14.155627255371781 15.3196699746797 18.234266643781883 19.288642021313247 15.105240382981082 12.568875436393064 13.724836886766774 15.61273630960807 21.825349296079853 19.038335271311823 17.838757465637084 20.571365811425707 20.536941497448716 15.104375304735763 18.02794832802398 20.58341409952921 20.798453026517247 20.552771253334868 20.68225952651613 22.181730057510304 21.113501498159685 18.687131203141856 16.74277285317328 15.005016028247788 11.887163822372377 14.47459679170526 14.815168473285524 15.251133902045805 14.333868978609983 13.7190349266455 18.08076907913269 16.739445479965937 18.62287439520308 17.445677731637478 16.86192773359027 14.106936897076054 18.26795762276146 17.70785038013253 19.254554034760073 15.557857205439632 17.369664477134023 19.363114057957873 17.70475028784072 20.052417292998648 14.579602372948237 18.737217963747053 21.724587649846963 18.712770619438817 15.393861514377548 16.82928910742712 17.431382388008476 14.161810750784205 12.60300219391651 16.60825778169365 15.316807912151381 17.658720045516326 19.020957467434656 21.64611851267262 21.73380418068714 17.33468373764535 14.800937354848902 12.14096286427834 14.863656894236186 17.373282696826607 15.07837479552787 16.138001651723243 12.577971546556752 12.113073959409595 14.449073038523197 15.428967871977177 17.562310932802266 22.571774103368014 24.347025286319294 24.23145757869397 18.117912559216553 20.4753275053498 23.177563110110363 22.523309032932595 20.771965462050137 17.102230403338464 19.04328922401307 20.204061765648795 18.799601501506785 18.823395605813943 15.40468438682361 13.079312302259064 17.39377309979278 18.05096611541311 15.222273984799408 17.88005349188478 18.897524732432295 21.84284299326351 17.71177222133845 18.02862289039836 17.818183270419343 16.081160171115673 14.64694239314845 13.828257509580727 13.972626023385436 14.663096547889003 17.370470306448965 14.016787680233609 15.2429080811683 18.520662118701964 21.246907654673254 16.029476010900794 17.466022887218934 16.246275372437882 14.097466515702088 21.193299444464063 18.0963903433722 16.442128606021686 18.433590042868264 20.5625938771741 22.788007503971997 22.508218233079145 22.164819545288232 20.110909715728422 20.776997684961472 18.24106351248201 20.276854442666345 16.285477608685387 13.59426456745569 12.800043728237283 16.5417913944896 17.228407349215832 17.868894343945794 20.640250502926232 16.815002823861846 19.697137122591577 18.027530417179246 15.635805173896427 20.003540974596042 16.449522346053644 18.269350209392897 13.385993086501808 16.215825117524616 11.908076972350948 13.674290705225792 15.455172808745656 15.05200597458219 18.198572299134742 17.59608133864383 19.756747796974956 19.690358816264382 23.914300944246477 20.95579577790312 16.92463104146958 21.4573398198614 21.411308873128586 21.472444127504545 18.511430777186902 12.32585772126443 14.158612035346927 20.37569294453007 19.14223861349698 18.891992434522198 19.833484136562436 16.94749003379364 17.41386818247206 11.234122735865693 12.043652239401977 17.599498088657025 21.86198622935854 19.15397492165266 17.694711661030087 16.8004958883196 17.378682070069544 16.376265975620978 15.336432289689096 16.742127164627508 12.668812066865693 15.737488581576686 15.517881130376773 17.69212979827142 13.515557663058006 10.851359922898094 11.890408759451304 20.685573967396593 21.18403721017337 21.6453830300408 17.65073769721526 16.325813995119447 20.60943107457561 22.66566068476769 19.042486259957684 18.59905969324292 19.44080545283276 15.518798343210694 16.013849883028463 17.391800094358413 13.682158544280748 16.820346928090135 14.445274865543144 15.620293258586289 21.44504011858722 21.392711577770932 18.599388290406687 19.682665088725585 20.1638188251774 21.138689721941116 19.249641237699024 19.947687435020516 19.018079999805085 19.709450659962922 13.513972866822238 16.49572390949799 20.131102214345706 22.263780207186098 16.972645799720386 13.659863338147746 15.573332008199142 11.695129906214802 9.525761260213768 12.396047341803317 15.115181784787696 15.880111653571118 15.336117875516567 12.724290440407787 13.857705105073272 17.433359739837968 18.392586440319274 18.875008412194386 19.762647578270485 12.709783749892594 15.974741280440691 17.24489535257521 20.412448477818714 19.86220831101823 17.45319392445634 18.8672299779248 14.954505159292163 14.97352468914058 15.512357733433946 14.733979604942931 12.978428542748533 17.47972938548578 16.217383895192686 18.360586691577936 15.051234823078328 17.409042640214018 19.17146809130192 19.655049712080725 16.31728180008707 10.630369796212646 13.40817379380793 19.473693612720076 17.40038695590394 20.476169737156578 21.5504166841537 21.0068640982004 16.14477872049406 13.330570655325635 13.252771729210034 14.547394454974123 15.314769126734852 18.641633534595165 19.99745410992555 20.99207209866375 19.318087467842343 13.863986420714951 12.10080339782196 15.324226636739105 21.571927374991894 18.943446042460526 15.516477799115975 13.968560156013766 13.083699056227697 18.183583905670726 15.590704940842938 18.195026712506117 23.484534027164397 23.361741124442418 23.874040280606348 20.54844260734038 22.106673075258687 20.81916827209759 17.073421074088728 17.93527901881338 18.181529763612236 15.21497098220589 17.73104108417447 18.928832198834943 20.15706596159433 18.766069651360045 14.470741562599171 14.633866240003474 21.74505114694727 19.992992296485074 20.856569887928433 17.398011538834 15.97148192524378 13.83330874825221 17.04819257989214 15.965249752286157 17.905424517250786 15.22434674849588 11.581174388375173 11.03894169367143 12.21415276711585 16.031369997343344 12.156162096662332 12.979274193801743 15.61999909236079 19.851911736456422 18.34553076868414 15.529817692834124 17.18994581350108 14.33071336817756 20.121947868970008 17.954846124016527 14.92322738112507 18.85269435522818 18.359094942449545 18.104427353665223 18.141181886819993 15.972044648617004 15.983743566509972 14.90837310846734 17.01668652961647 19.052829336851563 16.912256086614434 15.558033951122946 18.246755653779573 22.136995673785776 17.844724542254447 15.505894927470415 16.992536093732145 14.561998538279566 17.741317633565835 20.03272440414695 20.180788878621286 16.448163286771425 12.828737762601799 13.547977644358703 14.567969974946173 19.248621320877238 16.289736243762732 16.816303721052805 14.80127262566996 13.459727075876405 14.726074248820847 19.038140923410577 18.53575375059987 18.50647182477557 22.30756895503828 19.150748774756416 13.606665422453174 18.74323972157764 14.330838875094477 15.432351084630758 17.900575003607937 15.17519671794292 16.773122007880843 19.513360086863628 14.615491074164895 18.36144326365459 18.24919965472524 18.390949543688563 14.90475031714869 11.887050936707583 16.865356532859504 21.542544895392997 23.420914098209256 22.29952241135664 19.910652026322435 19.82322107199546 19.042485608012285 20.122917377953936 21.19434253001355 20.780593341592432 16.614660376778687 19.657333930242935 20.96845795529377 17.032359348255017 19.031738155070624 13.79526787549759 15.777612447061072 20.991677478589526 18.62928603212838 17.83975236132141 15.88577396848912 17.877069492297167 21.84506565077104 18.058420135682393 17.997417506518936 17.285508157137112 20.870452490371992 14.805710645536395 14.898085505146357 19.37384618902896 15.584598878782657 18.235446895079853 16.472744044300182 17.996051736505976 21.47803295133272 21.540510936495362 14.704747798498616 13.705731511216563 14.843472068813174 21.02530307289388 22.768984231594967 20.241527143030037 22.397457331825063 19.83554910850062 16.4439819257122 18.09847492895685 21.301044476913706 21.34129012755466 14.393046049286097 13.977041270528535 14.598554562201196 11.42065343483653 11.170331470296563 16.07086752625822 19.98106715815606 16.84331249820112 19.09608718097093 13.539278283953646 14.183409300104646 17.203566219767723 18.156831216660056 21.83237968517501 21.067171794704855 12.980213337747601 12.050145205201964 12.537235280363468 16.449805679934855 22.153785166595203 22.888332990490927 21.53482210441265 14.287665300624276 13.978958492675469 16.376954498370594 18.29960946130265 16.177289865233192 17.938919052933738 17.82909348465698 14.75904491249215 13.853242025124251 13.807892636468864 13.43580375146074 20.290827159409268 20.573683710494628 12.410500609429437 11.436298310950583 14.990600866658596 15.00085370532006 16.697448360063877 16.776065517566902 16.83095636973703 18.259721436085762 19.105543752662225 17.717071639862088 17.66351889275782 21.042408267549554 20.468715876654013 16.234313689805045 15.618350884038314 15.522770324451548 16.526071479896714 16.470677361276703 17.59799315111664 22.174962280537933 15.413233044702004 13.211287687111907 12.54271613848915 15.670434648588385 18.455082275186225 13.130166510568888 13.21066178686742 21.821932008312622 24.528876788414493 23.480681352520488 20.857999832358225 23.532013592951287 24.21987889948198 22.761760090514183 21.48307961003625 19.174429130323276 15.607567469002312 15.367434037158818 14.635898425111 15.691613626106967 19.734600381365446 17.10643639929444 17.990587159845155 22.382582420328188 18.413265013178144 14.703545415223127 12.793847463533977 17.220711550731412 13.668676088439328 15.303617095950816 15.79524956885438 17.379294535575536 19.55268211740264 15.364722176744747 16.46670852775813 18.597100195120795 18.619222592938765 14.559793089399019 15.991312055476563 15.534956610846072 15.186784735285476 18.805463479118256 15.774641281043532 13.5149210272651 10.953920717286271 15.071322742291754 16.364348926467578 13.122955356942978 16.206267086010833 15.942219301401197 20.687959881334475 22.606690516810325 22.178248921270168 19.637568365948983 14.45163092471151 16.250163743478762 19.77269789790967 18.399269634943842 16.389965083333433 17.42377208843239 22.40670255725159 20.59950868582085 14.373499188814135 12.466411318613929 16.30622588177684 18.056694873842442 16.459136550736858 16.99202429214782 19.3961150627759 17.946916559990584 18.340712466690643 16.541376170069924 20.046658477930553 18.746310563625546 13.504917203398358 12.2683206964358 17.222946812755133 18.05663724579413 19.85518702749714 18.683175457054634 14.61376717934121 15.63285309444839 13.848135486973542 11.42829104958387 12.897561607543668 12.797212608242264 19.41325745843258 17.920784662233967 16.233087978407166 18.87259204662426 16.71144545310011 14.997856274534552 20.23563479032799 17.07288452606294 20.521078185360825 17.080165013474307 13.070796872810607 14.17925604801763 21.086071986229815 21.942112190713658 21.13399597922485 17.148741592843137 18.129741077754254 15.97827202234887 13.935049909644762 15.6632726304823 18.04764145527213 15.781787258653921 19.49810384469057 19.506426953339535 15.902600478387885 18.268170566659535 14.757533449210234 16.650156922010808 15.406144224654437 14.492714222283585 16.561781605254293 18.10192656592498 20.665947649605698 20.761373004057557 17.306125535776943 16.522049222619117 16.99645177084734 21.56953792575873 19.839991748181262 18.995589577194583 20.101398713066388 14.374375533161437 18.572842223955387 16.371225729180562 15.074663256289899 13.989320649010661 18.62773053719778 14.919941498820359 11.831046164936819 15.006499497894357 16.798187844303122 22.214628548235094 21.284322271172254 22.131156691508114 17.275181302938517 20.208266801130915 21.703154373067985 17.084056727132264 14.766023272158918 13.14170484553103 12.248597472119053 14.50170873558308 15.056557107380145 15.953713501607837 18.89194716334552 18.485045932401345 17.247907026992333 21.060474551423216 19.181464882324775 15.755865418701621 15.134902324429701 19.313835246472653 22.72076767417738 21.922593441900222 15.958229394798966 11.60199455202566 12.661403613499632 15.089903061153045 20.448290991374613 18.14838891990071 15.958306998091247 13.645447838131767 18.67606755847874 16.702633873604544 19.23461719209576 17.860322331599235 20.05922512013897 20.235859293013515 13.798548928315503 17.570441866637434 13.543176443006756 12.630599372309424 17.271748665721013 22.018146225764184 15.0685683194731 14.412518468647095 16.945575902607292 16.309996762066003 18.146816232756308 20.44911289327144 19.189906710070535 18.985501876969867 20.250216775327036 21.062345258869566 22.185686520471254 23.178359849573603 22.693911768098204 21.32060179406687 21.849300270063633 21.903621597754906 21.41404290269187 18.506269081113206 19.770455249954885 21.345408875279226 17.425581733405963 17.223290071415224 17.602678531007406 18.568267508811044 14.720585453488878 13.49093612200322 14.848637737933947 22.553249562648716 24.396470935847567 21.265692607054216 21.155149912119434 19.92105492037394 21.60500065546092 21.5643134863764 17.50345618632699 19.018129073445262 16.778390366840487 19.722615410031324 19.348077155840745 21.153855205109753 21.315809299655896 20.893042507699292 20.115185372485843 17.166969055643964 13.476390300334765 12.482192909286866 12.473937362652569 16.29316749970883 18.2585301467147 17.917611263832875 15.689115399423885 18.01552090820201 19.569207869349725 18.17253121581374 18.0351473376492 21.212674644649848 16.207342171770193 12.615475637527668 14.26972483574877 18.435364487133448 17.631248074082425 19.358363151703134 18.79242101087015 17.6591215610869 13.61769900041546 17.9431777736566 19.51248287753712 16.54611706799979 22.172226356749942 21.97363992984982 22.9020865487434 22.447180675550054 22.95230010759888 16.675476240620124 14.192926594711423 16.906198080172697 18.69379021768648 17.70456625187203 19.695901586240854 22.07610912697776 21.459176350868027 19.810495457824697 14.579119909760228 12.287825558528558 13.92638591619115 15.060395645007247 15.979983716310372 18.15865858590149 17.169474373742755 14.818674005985885 16.13885839580399 16.37266267276091 17.864751241291344 16.154867934816917 12.832660664722704 13.048359235994774 15.18655292693213 16.990343426347412 17.13417302055095 15.4467384737547 18.641513792753646 19.95866883291592 17.86121576094495 13.75343025473116 15.89538268187596 16.51422640891612 20.19672098358286 21.785002965974247 21.229899037419887 19.683198788300864 15.313657304540143 16.756086414118126 18.778553985902285 15.694140227023636 20.364289903082913 21.575760206708786 19.789009663104206 16.666814698922828 17.10918999559836 21.08304158851776 18.175591149894743 13.885888475072205 15.52989060274233 14.477252758796954 12.241576547489576 13.892442496129574 15.913801517109208 16.998242493084753 17.13113148430459 12.892862491016796 12.701990214274332 17.98992149716609 17.918656952214587 17.17443499708264 14.781210429656026 14.918643569544619 16.96684747511289 15.115417045296217 16.056012753066724 20.268439989818443 15.401376202480986 13.68781918734172 15.034591981297156 20.59457925208651 20.80516915537016 18.323369976148445 15.829097427332554 14.344912052103423 17.077454093462645 14.08691110320211 18.658740097156787 16.17364690032775 21.11431011655848 20.026189568492587 15.905180657604758 16.29646266567267 12.826326086435275 16.280599366501757 17.200539099743313 20.11817333354799 17.893587111116204 22.481558163062843 23.911789939879554 15.966913864005853 16.97468639985058 16.89040965104442 13.122181772614649 17.194259416892184 21.183729486125358 21.581714528109213 16.385118812146473 14.916177443222946 15.402101697133523 15.560848018863966 14.250117196501884 16.10023076172771 13.648918394613442 20.283104311946673 20.68641297693102 17.482658180727288 17.722645693113986 12.993026809990972 12.666615178405115 17.565478009782744 16.107638103156976 17.0214533447934 13.641265136722067 16.674804080027158 20.44429922505629 19.208347937724113 18.385483118228127 18.245196003908333 19.3257990103327 15.744499086220236 18.421575428579704 21.1186800908534 20.657254114671698 19.749742620335777 21.83010168151325 22.816045477428595 15.85295463289695 16.914994926401658 16.24205356377363 12.765719670685616 14.996704365809936 17.30367595117098 14.886363191479207 19.353076533593438 19.578138778928636 17.250353201495397 17.712421312005688 19.324475499692277 21.83622225367738 20.89858224867607 18.73545481016045 21.041816429029247 18.417164511499443 21.112478968273646 21.260723750147548 16.548329550338103 14.777969256805662 14.52415438030859 19.38401210248366 19.821601941588057 17.271373170611408 13.347229823975782 18.75099926242955 19.835972096960838 20.285708279525494 18.040225839278243 22.96783330238315 23.09571670428217 23.2489762820972 18.825662033819615 17.079825097186934 18.377573276475363 20.888491713220994 18.94802321289203 15.403829233356836 17.365476472328005 15.516289794722343 22.342286286764864 22.722713747083958 14.38512516657849 12.262183254831623 14.21004199121026 19.070145443721884 18.455715410900368 15.323805438560534 17.85781996915259 20.78978181529607 19.362720676297627 16.097582490070348 16.832369512683474 15.455415416833171 17.813166626724236 14.472667523285306 16.663650338982027 18.26139779282123 18.471435643704332 20.411438312557014 21.133907116304602 18.11617948175776 13.892285057715032 12.672976895094994 17.12574197371171 18.423962934188157 20.274562266853717 22.327092502874276 20.984294457758097 19.764476906241725 19.414397452318514 20.41421672954592 14.544704242508585 15.500682391834465 21.230882692566148 21.284341557342486 19.538336240346318 23.32757347426581 22.284131342701333 19.85459274058925 14.292445930895475 13.63805573887708 19.491547083529504 18.32941225597427 18.390739210315726 17.723080432626304 20.297877400374695 18.688945422659017 18.296014718944008 18.34601247956919 20.17253402371571 20.121377076020863 17.7697590395164 17.85903926049665 14.822789276883817 17.507199920232505 15.49971763294809 18.14361603662581 14.394683027680728 13.676989141317073 18.489155026175 21.771650899162168 20.280735591963946 21.19548901618995 19.844139456231062 18.92477902418097 16.97084647005454 18.683182743337795 18.500435900097923 18.18351750915998 14.33638917708902 14.834712915159946 19.28281217544976 18.05231497439341 15.79821271022715 12.618722837520982 13.220036756155142 20.358454247879603 21.33234284195545 18.700690194009557 14.07576519160511 14.625643165391892 15.261666460050298 14.703425077373868 19.152259843532146 16.875949583426817 20.569889137521262 19.89780515861648 13.930028647109744 14.510648646090418 14.887251642084978 20.26908549860672 17.82783870000731 14.373879346679086 17.336069426118208 15.772398367262838 18.888196183906768 16.889378833217155 19.83207852786427 15.779725221188924 16.252294822940485 20.444518495814435 18.89047151780697 21.248206083927936 22.150498324848083 20.821233227057554 17.459374603085383 16.921559027171288 12.628656820527238 16.888037591982833 18.45392902792795 17.32705053989924 17.22306007475989 17.48525109630857 20.150086887341875 16.43733056405766 18.615683933257973 16.374174722003538 16.727916647947236 14.942835025145893 19.483488504614023 24.17145144095492 20.402306456722737 20.753295287813902 20.300559262548628 14.270588083857643 16.617363142065063 20.262496453432025 19.882340391546894 13.04795937916261 13.360811403840005 14.72661378720385 16.66957376338127 17.027484048248482 15.915780898144323 15.885320668699775 22.817454214737108 20.465125442126492 19.719585374339296 18.28403105349697 17.47236871921059 14.663559507355252 17.353968473852163 18.011825887045422 21.46417807876193 15.437261996291818 16.349301890147363 17.228944915305057 16.303176461696967 15.74806798132154 19.518219888463317 15.021071261604568 14.144819711726734 15.686769713333456 19.559228978324743 21.83021506341415 19.48042600984583 19.62859440861346 20.277197491350222 13.31990015228693 14.021201882636404 16.36710379943887 11.714530162028288 15.530977444192514 17.964030136373875 16.002873123410197 20.085184108439766 19.56739579761386 16.864376916705627 13.751849532089956 17.774478156170275 18.69417877445016 17.612592460283143 14.211522053346902 17.064140307930714 21.08276800039302 23.417002801624278 24.46960239159826 18.86537809577727 17.16156098948338 15.827313085724086 20.01511970382993 16.161119285503144 15.95079697372578 14.57031587346443 17.812797497314474 21.185419047207255 21.639173033269962 21.932172536021287 21.427639681218956 19.056190005704842 19.65868242248903 16.106483954970134 12.975807828454814 17.023078346553977 21.568041721580734 15.215872219934944 16.80294441126263 16.544493628244247 15.760219514384938 18.931657185912265 20.700876041649632 16.185452552940188 11.8809316653927 15.338161763416563 18.04119662303063 19.36073786477216 15.738885695566108 17.391192389733938 16.50564239242251 15.274305886374734 18.366948429518537 18.081162282559106 12.242501992317022 11.926358973872194 12.651662803840573 15.751163037075678 17.99655711885381 13.959893723204742 14.432622024614517 16.704387104657982 18.285838764718928 14.173242335638125 15.30702404347756 15.636742984476273 20.598172135653023 18.741422318125252 19.317266119432542 17.248251825805532 19.376343775759615 16.642490456826867 17.237278151650738 14.965919968613656 17.719035536567688 19.021591255102443 16.556625272199653 17.230988300439886 21.407916168262624 14.863330920382563 13.637722796695066 15.65874422967646 18.701664619392368 19.7938371251885 16.04505474026916 17.123233954224865 15.747985491610455 20.475171438746163 18.12606775146896 14.916221880817872 16.086655430185957 16.81144319889799 15.93019398316919 14.444304910616681 13.283381214006148 18.171475047468572 19.740813608826098 15.77387965012406 16.695909576882755 12.496190177342143 12.01846544768629 12.675267440133917 16.246686586972473 19.714409877618895 18.824485363638615 17.699217091890226 16.862226953518046 16.116744811049767 22.141016812841396 21.82212879607744 21.166616792659063 18.083313993251384 18.143309650461116 21.66398253619968 20.980861475769714 17.879280551444417 12.728716784939838 11.168592392855183 17.95678218732222 17.569327803953428 15.775809189724962 17.68299585559838 16.54495687063742 16.230078795765063 19.339251337623487 20.025803105221488 14.823142888423083 17.06730990139256 17.889925741042454 19.072059669404947 20.243814934961087 15.76779250885054 19.354496675405226 15.086957217083656 17.632067372119398 17.123235810119887 15.680355797815979 16.122912296683335 19.803161403466262 18.785960131402238 17.376538745495083 16.775933339323778 20.651837102365125 19.09163275102599 15.044919000807262 17.996059665385015 15.558176639572435 16.646997649362252 18.00549405087024 13.49393566143809 14.775922236888029 18.256987954586325 14.94056701813017 15.826700117857413 17.80595304563957 18.064431010657902 15.301368744644204 17.6062082215065 16.55072380417668 19.548955742996746 18.36922631240014 21.13447732578021 22.305689284400447 17.86562423952383 21.555051037964272 18.864953660840005 15.172796640750546 17.029720902464327 21.166613408821714 21.044645318198842 15.468890626648562 17.992788612815744 18.87189816559963 14.569911669819485 18.685166352300516 14.97489333393571 13.644025787166202 19.079229186820736 13.762666639241445 16.24143409087935 18.199687909385013 16.84522270858628 16.42854069411849 19.350252385311205 17.386054871671526 22.756558375493956 20.4976076111676 15.37499523616723 14.807693291290914 10.99548794