# vtk DataFile Version 2.0
Ocean Simulation Step
ASCII
DATASET STRUCTURED_POINTS
DIMENSIONS 200 200 1
ORIGIN 0 0 0
SPACING 1 1 1
POINT_DATA 40000
SCALARS Temperature float 1
LOOKUP_TABLE default
10.654446780083504 11.531422132027647 12.659024970680115 15.751706676600863 12.269397689201803 13.427136452194302 11.482869929388462 15.528139659281953 22.61198564820627 18.893681453462328 14.861372149789577 12.87291112562358 16.24339225805546 19.964799089982844 18.183062916656322 22.404948405755114 19.032814233462734 16.024008795418585 20.33282482529509 23.91109377395648 18.119202489652505 14.688693960965772 9.920445522795028 10.840868686049154 12.3813137267257 13.007019119508726 16.85568255378057 11.610199020799827 17.908715807638202 24.5681900732529 22.21130415759747 19.030201737984846 20.225761569253283 24.02420243378653 23.06109686991586 17.530828749854567 14.15524135011388 20.9745000850752 14.046235674831618 19.7616379089672 18.55521513608331 21.956870785933873 22.02939085848417 16.753596169248215 20.007975249210944 23.978125446920828 19.694609384323613 13.795512007721792 17.47250497490299 12.796240748893446 16.38860757786383 15.315951853994456 17.78233275049397 21.229074716129244 22.454421319296372 24.207123911120775 15.91772616950712 11.187968678401482 14.466547674647718 10.390840057811614 12.63832063742759 23.63352988861456 24.005257911252396 25.164342910516915 22.020878864155456 17.162329141997265 23.779822553149245 20.236646465068716 16.495010752983283 13.469907411189103 15.649532699044547 21.084889566230153 22.694707523118197 23.4152703577569 20.550142861226913 18.502660141603577 20.083261152234854 17.15232603181484 12.728416041037038 18.344889977685042 16.553606122046084 11.861124246463346 13.602196834858713 20.099395374941 19.446088020669652 12.28783070889094 10.109053693694326 20.86027547896917 15.57418769510318 13.72126334036071 19.78491161722509 13.774751560242274 10.97126724456497 9.638488837409954 12.932590675771175 11.01168451316386 12.361914696958689 10.491193494304609 15.02364005497078 16.715120299068182 13.736655867646629 21.83940528565673 17.958813596900836 16.76922596658365 12.168398138490316 11.011146346383143 13.870696069934716 16.29206695587077 15.380318395598165 22.411925010486666 21.88622156597485 11.853792510908578 17.84831748979433 17.562620217787575 11.24763208849264 19.045703726682003 11.651513466711997 12.316777245785039 16.85423865520542 13.401697881688868 18.391326864641446 14.119187915839623 13.27116799036287 18.05401576513175 21.46036154117583 13.542280779309374 18.589605966500233 12.518185757713962 17.526610976120374 21.190618476021363 20.79894594407144 19.424937921377904 16.069573994833743 19.764385474176436 25.483988002248385 22.782056040299285 19.05197964929402 21.60890287047438 19.995934493695653 17.452699735806384 12.706565706313956 14.15354715153934 17.44873995374223 22.951437366229282 19.01117828715717 11.179378026421922 18.63186939668109 22.507740746273058 18.553115059130718 13.707666806584431 23.606285273207796 22.37087301738753 23.37970454080416 15.369623969946906 15.881505679638934 16.007147970407146 18.89051282610181 15.289422986427267 15.987920090336262 12.190751190916734 13.414176396553872 15.89340203226671 11.50517409128779 18.824781729124467 23.393397584981827 19.99523299105199 17.314142843082212 14.353320450587224 17.867884532554697 16.446720215617876 22.973418922523972 21.006604630400243 18.718475454176584 18.742761818094916 23.59747042171601 19.319256039321264 21.24525260601801 15.091791352233948 12.599382066042093 21.726652752122707 20.49537688808166 24.523004622837103 13.795424237636402 11.353109002191117 13.221375306711256 21.249049358502912 20.786402351642533 23.08386194992083 20.05753412258237 17.105020164488998 12.65978256260548 12.603669183916349 18.602336576659823 14.662899806407461 17.591088749716178 12.813688759061087 21.264612662064867 18.709709520851085 19.571038516410827 18.96080074058769 11.351136018322068 10.041940712865221 17.030895852389538 21.311623319583788 19.040676443191924 21.2508019211551 16.519616002567393 15.988046107799535 20.12092371621058 13.24335114655321 14.941949349782941 14.112267047903568 17.59028462730566 18.350471708808033 13.164103831731023 23.783742039281044 22.656782479954533 19.103538497168547 17.69834653889203 25.47755851455667 24.525020503159826 15.488549935416998 14.015729236568243 13.533535482857468 11.94599150012447 17.379524684156898 16.178445322497556 13.085207809470598 13.912715336715953 15.344454586867935 17.29787892511844 15.424157340662049 22.779931963270023 24.809650516835948 22.061753007950426 22.805112324386425 13.57691408081012 23.06975295434757 18.990473782247403 23.09571096854559 18.057437622690664 21.252478622241963 25.339674412458525 23.611439755891958 22.620912969725108 20.222912692641266 12.47069608389522 15.645025142121392 19.118083168243665 16.628497701804054 20.236134018387798 23.663931921748986 22.405272875871866 24.91525120067062 15.820995822787246 19.226656309700797 18.339670438715252 17.45371275305609 16.822347918363665 15.324416358778233 18.22350855328274 24.39248830417411 22.14592867790746 17.550770992987328 13.410328694699402 11.469746530076515 15.61283307507156 12.22490430979057 12.659406943612916 11.822392959880872 17.090436634287578 24.31971053432777 20.34124389213543 23.28485904496956 23.722044084988273 22.44276895855759 23.922901733893546 21.046552232305153 23.059309601642678 22.637836922530735 21.775290555040957 17.418886191126145 16.788444240010474 16.046751297537043 15.80794966243304 11.369473346692299 11.231054269682064 15.751023479101871 12.930829450365115 16.49788055702582 16.82228288784855 19.35949906502095 13.416295452412767 11.831158626721583 19.98171068187441 19.451613319626265 20.186984312318486 11.61348559237067 16.583113669102076 11.298612655194429 14.769179724316889 22.22074452086343 17.25841333728876 14.620025712784086 11.306126450596418 12.736823013256478 14.42869488738277 24.2377120582702 22.112071976357885 19.777124915541936 23.470510989571952 17.903897495155217 20.21241655826086 14.71593272527533 11.020371206001672 20.07057643868734 12.752834512087126 14.892313335650496 13.355486096235952 17.221685845833246 16.71218663768123 11.112098135688045 8.860073748711725 10.767744105530495 22.84577378935986 21.03619528939257 22.44116225412887 13.121582106297579 11.739441469091357 19.242282767054274 13.165486003921199 13.223473116696772 14.554407848468832 13.27737042591034 20.977627540898087 18.95506742521196 22.876803589865673 15.285520412814797 11.985732222197186 9.70461796683277 13.341939081698028 18.426374908759076 24.270391854636078 22.19380944120945 14.949190826874245 13.783094264683582 24.25718459462659 21.354526301048516 15.945651635941799 15.275697726735132 22.848759566872715 19.990471549957334 23.30329058764139 14.084650761893329 12.230922019444819 16.593842452246623 20.66618611384291 21.552552059073932 15.77261435061509 20.956620595415494 22.175478114185466 15.793318859576374 12.926874998090177 14.181691198391537 17.6269007073113 20.18811405761599 13.830009730931382 11.894830125314344 12.827258334279765 14.14525884508236 23.00928118489431 18.78929069715243 17.75180554917235 21.739444823038717 22.292289294000675 14.057368565669927 18.55985820774339 22.310029321855588 22.464579741365775 21.045636871003513 21.615946148957264 23.447360609973586 22.601894904928855 19.44547092729422 16.88180010368979 13.788976109820847 10.016064989560745 13.591102492277418 13.858041933252517 14.450676363441916 13.763368952886573 12.654374967061251 18.833289761668066 16.677531462297008 19.72796287902936 18.07621530088441 17.085141645131003 12.66959424119716 18.868557832993762 18.567865562798747 21.379929547106695 15.432820415086425 17.372377116099326 19.735979618889615 16.514547789407214 21.828967510306907 13.44306222946583 20.04664018451428 22.916256924064623 19.64084214683811 13.930107246916162 16.617540839490278 17.445649840783737 13.194906119209138 11.601433141355436 17.199651365665403 13.923981978705571 18.13531124847121 18.960320978095073 21.744479460485326 22.147809326361358 16.84476784471745 15.232946537474913 11.254254574164696 15.268521340900524 17.479896564761603 13.752901322559104 17.418689444253232 11.680803990636134 11.268270424643028 13.687996285617093 15.313273594933651 16.392485392784256 22.600026956479184 24.987579431681084 25.41317948388361 17.0416761811172 19.904703732747905 24.530918210020907 23.44397959831128 21.84867592240527 15.480326396508273 19.08881103080263 20.5337375451347 18.0211808213123 18.93637152881311 15.09320134726396 11.615236105209537 18.337481895283357 18.165567181781405 13.148664594497138 17.046858133330833 18.311678634210015 23.462386194957137 17.735364478713635 17.98790619287342 18.324675971492507 15.55683660712924 14.267740540617993 13.922155336524247 13.911044896753397 13.563360977545123 17.87372215296714 13.139852109817397 15.485804740577777 19.768896548495473 23.215413218688326 14.944965096473325 18.846351267582353 16.721483153784494 12.28241805421845 22.506268557825898 17.517796642432213 15.389424249485346 17.67205511617441 20.59987297922154 23.7262234286942 23.24310590979581 23.341206268370982 19.898703132763107 22.10542329105232 17.69928988352915 21.82603934087822 15.981207008412007 12.88540311980059 11.525664241692748 16.822821748796155 17.353682185064176 18.407950780734495 22.638830238818112 16.04207128161532 20.794176790792378 18.397552323733905 14.233228248240588 21.93578193716605 15.732217175802159 19.95618707460747 12.17075825093681 16.90848934533718 10.438987030516808 13.092296848625912 15.09946178697145 14.454015791431956 19.823455105826447 17.552664185335388 21.209948239534196 19.738040831526725 25.108631216968973 21.18663935991598 15.796392703901818 22.142436582732266 22.807926150551594 22.943373591095654 19.47818515822788 10.9427905062586 12.454678389480113 22.46455752606337 20.210595670675524 19.321092312577285 21.028865419697844 16.07408938051008 19.667935603864453 10.425697875295684 10.786925773118531 16.58552194729991 22.852247172478737 18.06504160073109 17.916732083497596 16.699570606192943 17.19100339567156 16.183707021682846 14.25711072182498 17.33669963144641 10.946077975323643 15.160389453566891 13.775165266955016 18.353330459628673 12.11137429922208 9.940287105260143 10.3818370428806 22.7246607145616 21.748763987699032 22.56961523152191 17.016875770156652 15.450119243394843 21.47011533607934 24.096341954289286 18.309758811074577 18.946607788638612 20.392000911199656 14.152821630119638 15.656862666988602 17.149086977636962 12.298280839096053 18.063099819087434 13.415742020387885 13.964642844543874 22.283537713724417 22.310989777444924 18.351007605331304 20.366557565270323 21.3739559461932 22.50167492168394 18.816748759725993 20.568456598785822 17.97961749358603 21.539503579534777 11.904387188976024 16.732405322071042 20.75401534957993 23.274549303770293 16.878594632555846 12.258978870822231 15.903996051680563 10.259704016293336 8.103140715028202 11.233539722971285 13.800952537565568 15.323802587736441 14.372509010678177 11.16253224804375 12.342185970264474 17.27014802005455 18.475692635731 18.517122590570096 21.50158907347335 11.353833778276332 17.16806230207099 17.92910601783023 22.238382269616128 20.486186429856417 16.559936310296205 19.275815972234586 14.302121557936239 14.587872066640017 15.317250846510841 14.095357945179703 11.58936842645423 18.25461115903965 14.942912856213466 19.285871642256538 14.304710729724732 18.00943962806437 20.140861269317803 20.354440096662113 15.373940044370375 8.88396480398296 12.483742086784613 20.99668112126534 16.607220451923887 22.09340473842409 23.003545901793917 22.71602841230875 15.834617487692345 12.33693465497746 11.99979503766008 14.402079756465339 13.722651061739768 18.660575643440446 20.38830071397396 21.98567049172869 20.814727556772404 12.79812988301954 10.925903498002603 14.622016593843936 23.177553845399547 20.188060871895782 15.36254286995656 14.511800108673961 11.929042190664651 19.798630568397684 15.170819931563651 18.777990682890117 24.582570116193757 22.773256746207174 24.36945084099858 20.220666082853565 22.56196870547604 20.308941263716278 14.808252440980748 17.07367898288982 18.887363458705764 13.809841074282641 17.985984470316932 19.602668073512838 21.37980571089017 19.44389202153355 13.885968957228053 12.675887239226903 23.395710100229678 20.391664929582937 22.829370430271457 17.62287520870932 14.913397091206859 12.65912240512587 17.928752091332598 15.14014826865367 19.031333705615012 14.759202882034948 10.44440998655889 9.770639071256026 10.66023524481494 16.634630144001925 10.981119573754045 12.014383640853351 14.922081780821792 21.12091794765812 18.78269967500352 14.406447141448698 18.64461697796812 13.63998107149911 21.800979823426445 18.268305730903194 14.049430222819685 20.064973237687393 18.47685666846414 16.989039291983943 17.30074760040298 13.876943565929164 15.172540671639744 13.722462126957154 17.088086411892935 19.217275939829115 16.680232373648035 15.206381096513239 19.047460326319566 23.95633965635112 17.107754108805892 14.799287980901774 17.77201512237275 13.151858126119073 17.42914379838408 21.055049759814306 21.985847041258353 15.294347711761791 11.12438507188157 12.109297353166147 14.054516059661145 20.593803580087233 15.900893529674828 18.199746360170003 15.070336163608875 12.351115292661065 13.21704783800525 19.877761347421004 18.066926641388562 18.38563921668049 23.954560630063668 20.048750942859304 11.881907070503505 20.774456529190427 12.764074924461495 13.657285445759136 18.65823693105755 14.952366754543068 16.660161586397216 20.888187510547954 12.59718936363798 18.565419953993324 18.09719447904129 18.83477295046946 14.094350202371498 10.801125988439054 18.181760118836902 22.39658706942318 24.103097099620268 23.039100091963483 20.223369206038335 20.515883603353185 19.335018043511216 21.483241962037457 22.94812688341577 22.096273890031632 16.324662567287014 20.37145692005806 22.737816899949912 16.000651506698848 21.105453232233135 13.0613367409231 15.734736298239083 22.824275357182962 18.543395226081202 17.672097166161034 14.806378441364313 17.361879049750783 23.313030998047775 16.78218402833957 18.327793237228413 16.410980846027233 22.377136313135157 13.16949055701643 13.559531424024694 20.739165235112466 15.177853485183919 18.89760592321626 16.280042045299243 18.553185536853917 22.990092055588566 22.853878036458106 13.315774138000057 13.082179178881585 13.224871428197707 22.216293491540096 23.84920720439437 19.252002118632472 23.60830062349007 20.296426419426854 15.695822722132853 17.48860285649176 22.435110814254667 23.152062485390967 13.195123167170792 14.310621007541041 15.040214117648667 10.615243131800558 10.17127466540496 16.268047004895283 21.984035678311297 16.00125051154378 20.564196134046654 11.895037297346713 13.856696467248979 17.883408972868992 17.45894485904468 22.695006598373155 21.988531353929325 11.651188967186332 11.509442877314562 11.402126861154942 15.778039484890723 23.210909441673035 24.521114199104385 23.484216556112095 13.40116174069868 12.760972865438985 16.62465106737624 19.239333838247404 15.897614951128148 17.92040817173507 17.521503414723256 13.713891355325645 13.086645297541539 13.60878303326572 11.683318383587437 21.786850279588908 22.08684876081957 11.408084146097842 10.279178672522763 14.552292113174277 14.32408599555361 16.17367085123391 15.500339379831342 15.600582282002717 18.5897271573462 20.11216433258939 17.69341416086951 16.838886265585543 22.172794605158156 20.94452914163072 14.490651357276569 13.963404928885701 13.88231572529284 16.4179294776134 16.811406201006722 17.031039014853512 23.924367501715942 13.841383887280776 12.241057857314267 11.100140525285267 15.668199583967239 20.234758493187133 12.015803489540454 11.15628218162113 22.253174502858148 25.138251533517753 23.956485763378808 20.0317217594371 24.57335132395908 25.31049822062479 23.647507440587322 22.77102955497209 19.370062356637245 15.244462013866526 14.515390692686113 13.186348942154938 13.717425864439223 20.64613141518326 16.431258195307755 17.700565025702208 24.29414600158886 18.806329980980998 13.868369822786264 11.321778217224974 18.94229806567984 12.161493957625604 14.847747601615804 15.838137051286727 16.95768237826616 21.10396312980492 14.672668059806261 16.95029588771236 19.291921756025182 19.849704372880108 14.427247170164378 17.115218706957716 15.099873376464148 13.524837477645047 19.843516576467376 15.313613607544415 12.388770482687054 9.36630027249541 14.28740999139518 16.3786694109753 11.684809374318226 15.500087610707643 13.991209148562815 21.219019808067223 23.544041679549185 23.140064185445688 21.050686159673905 13.50463849047792 15.83034259160507 20.718399883241688 18.850231609795394 15.709202543174934 15.942187948062195 23.439322390122847 21.67236284511089 13.64787337370737 11.074564287765018 17.364421059173278 19.062174625729035 15.679487970559308 15.930314072968292 20.775851307689155 18.890707852483942 19.737997984566498 16.0208923463736 21.020730963259027 20.062349670287148 12.566602434403597 10.879634311560503 18.81138639821588 18.45913373660265 20.64980355815742 19.745007491922834 12.67694577090639 14.484336779846336 12.680959053292137 10.596438349551232 11.910995827615212 11.178102474662456 21.253652270894648 17.21719832438797 14.982546138118282 19.79493273884054 16.47675875317899 13.809995667561608 21.951771119056847 16.10003988212665 21.82411081818107 16.775337178336056 11.617784700330754 12.511841099648752 22.607959022122458 21.837842580095046 21.856791222611253 16.490570205097622 18.699243487618208 15.766125839098777 12.794517305317694 15.024451485346372 18.668342621551645 14.583538683755975 20.292254180512717 20.717961332515348 15.381105310621408 18.92329011408164 13.636453017083284 17.26305075229122 14.578134965040107 13.532194682566429 16.371162014856285 18.779882060567658 22.121308114610258 20.910260960522123 17.200402006397514 16.618026199142978 16.74899444587034 22.527703573813785 20.28314542791436 19.383205581145265 21.87392123018119 12.696999392423985 19.743166622487557 16.634686076558125 14.090253272427569 11.82123346635475 19.03441341841265 14.213397573235506 10.200909188651883 15.285071691711284 16.17748941072207 23.868029525138972 21.692680759059392 23.122748252565994 15.620524077376976 20.637426965496008 22.722328695060494 16.40478045631545 13.39266127815763 12.508303012066138 11.545342806450659 14.361470272956522 14.659528103121456 15.439176541657133 20.147646842161812 18.74667102848167 16.76540808028699 22.791132039132595 21.017646180154184 15.427329469108813 14.462755449117463 19.439622155076496 23.550729403519963 23.39208240242093 15.890369433951648 10.687118416383832 12.761659643269331 13.974674835577211 22.0369550663915 17.43855255782803 15.62694125684492 12.038928826167137 20.2572891816149 15.539244602624452 20.066202180075717 17.49350407041108 20.568531092150877 22.109948552621347 12.13789894843826 18.89280765610852 12.04893232408893 10.973642353869238 16.014139169576815 23.688148638652013 14.470600784646507 14.019939444356961 17.78819919202063 16.67505812189792 18.681898981891887 21.898711337641704 20.103256891785826 18.696418251282186 20.442113952409578 21.99752589251706 23.414597060559544 24.08747745174971 23.075754410717625 21.78681332320051 23.28914380815816 22.837183967450482 22.98669756005982 17.681500749810976 19.79489087281428 22.652990076547386 17.562160538061125 18.212884485684075 17.907456441051643 19.486994199724865 13.22854721475016 13.553116000454725 13.582461051662094 23.888147766726874 25.57527235544132 21.00818351528316 21.18860384836161 18.441294927298127 21.121439191643823 22.449942128087017 16.00354786889393 19.792952183369604 15.454691060506066 20.952762998907527 20.29042176721436 22.673021160444257 22.40838405102895 21.126643188162745 20.24873114657767 16.950441224700853 12.623771210062948 12.02076198841166 10.977851637632789 15.979358919399024 19.810661675939105 18.599447743103653 14.130535637681099 18.019425910712414 20.454001918436187 18.56846566717422 17.99592281506171 23.11843956445472 15.856214564547965 11.079981351127802 13.00634949386313 19.665547691663658 17.15772923243388 19.34650675463004 19.320495704647314 19.337874990276898 12.970739200816586 18.82067305747954 20.834409533383234 15.132543788106913 23.853893383214835 22.740613880140625 23.80266967201526 22.51834874493503 24.281268560811416 15.97512749405339 13.426854834851756 16.498186637396806 18.49522380959505 16.93259653456212 19.531868686375926 23.154621052998724 21.39815445803063 21.036013222125522 14.521037130606317 10.707188884767923 13.087035941095161 14.166300078645103 15.567093341552834 18.538006451550714 16.815297807960658 13.2855421983806 15.706931218653617 15.625892831134525 17.614952442208935 15.786361427794116 11.492591560545641 12.938922869303736 14.452769723198356 17.388811277025503 16.770064102105483 14.30315841160279 20.390588844587334 21.15649730471652 18.12415756561914 12.28262683186687 15.88418838231591 16.173849886961953 20.568714440237933 23.32296416799553 22.414199720637523 20.370571131311713 13.773401441731945 17.467015405328077 19.9315497389828 13.755356656618286 21.124694712880462 23.342105704217186 21.996622475265006 17.152950786732546 15.287541614384454 21.979697921459497 17.79590760294009 12.689909603870726 15.749753726782947 14.371755594300398 11.329702043110627 12.859997245855492 15.682484892514317 16.795187525917868 16.99196449738538 11.359542261944624 11.30106818153357 19.279066561935483 18.008083040682685 17.315367453353304 14.577291603523676 14.312418914896854 17.960393488314764 13.617655911919083 14.810483179017787 21.588364772508093 14.679537097907144 12.658755792544781 13.31312704371014 21.546042736614655 21.13447131329317 17.65130036971048 14.24358962000166 13.465390108725229 17.74206212177973 12.809502617078582 20.614778653527793 14.963490566761687 22.83062287006183 21.54478307853711 15.628724713231954 16.503373246702385 10.862531130139951 15.464986559011363 16.449412343574156 21.091753812150117 17.515227916133707 23.622144075019587 25.41850812445123 13.819994826318514 17.074371022225264 17.480026078638907 12.023581516665615 17.678118360241804 22.555674352203265 23.352930985478622 15.922881242593077 14.4257283377123 15.455807869442737 14.769938032548204 12.560647529509955 17.04044888367132 11.802503481988483 20.904506155429473 20.904585407310513 15.801924792702255 18.790610003872796 11.920934871855485 11.667844674649889 19.084518898782935 14.69288300030657 16.949116276482368 12.252614149237933 17.147947662340755 21.67862033464865 19.872121865737594 18.507400996523774 17.764975501226655 20.600407630813777 15.044079058738589 19.798853524008305 22.06250247927166 21.483793350175866 20.40102145636905 22.922172001206622 24.212689937032668 15.158521377685734 18.05413533520337 16.410978827065232 11.69740336259064 14.45969077064848 17.45796720026178 13.0757721918898 19.91053395680663 19.82528479556436 16.301306298504134 17.59860854563035 18.717227381683085 22.64902113458638 21.45568431664844 18.17923071033261 22.293070444762044 16.544352114937276 21.568130205757253 21.67177876421806 15.109132559005335 14.049211835417646 13.269987823293484 20.084595725270475 20.821977470877055 18.1360975143257 11.758717907578182 20.3298782620063 19.119520650301023 19.95156133802453 15.910640822417765 24.164205176236923 24.06681041554962 24.58678851439063 18.289614748433056 17.40731904377302 18.187707142149478 21.955019255304407 19.672667934260787 13.70978266501657 17.692042106950723 13.326198437674718 23.973868225806584 24.530340977292504 12.770568435879865 11.84527726190948 13.818188043582781 20.975432077535036 18.860361017407826 14.00159106328689 17.746747433416157 22.7813848976917 20.424912018132517 14.50694784972101 16.817143985708285 15.022456006129062 19.00414867008646 13.648291410262342 17.544584034914468 19.00569639242019 18.759395546655952 21.826231679094686 22.46285571081199 18.006875531124663 12.92729326620057 11.4014941691426 17.83832190329464 17.63630935336933 21.149156435695122 23.069858033940132 21.36447302917247 19.099954128719794 19.18941068345589 21.500723130015327 13.339387782773924 14.658648367008498 22.94306482263192 22.606912724880374 19.274675683518737 24.643161611031005 23.439740910374677 21.051162210796825 12.552344412909166 11.804120817680024 21.558913676025117 19.01237003834102 19.09957363342795 17.82794895265647 21.02126829935516 18.706305943277417 19.354743601696686 18.61295756420798 21.428755003661152 21.336316953743346 17.996841780071556 19.91961634993122 13.579858393714316 18.310125265612776 14.518532070479917 19.497369181164864 14.211777667927855 12.270297335261398 19.285000473807862 23.7266959371542 20.789062559831667 22.4976111001854 20.479269518522127 19.230770603703984 15.930472050392803 18.05322453647315 17.8173740011768 18.81323237754265 12.893202473342383 13.217401380150896 20.43052022447963 17.336240839458526 14.847782321919372 11.111214287597472 12.145376472779736 22.047291499305143 22.196910439416897 19.635785644217037 12.871845180997186 14.249128382250095 15.54946332124307 13.548827585217325 20.80175804598642 16.35761534906495 22.19902310486101 21.334820693334066 12.38596681416891 14.13357967659444 13.530346910299079 21.745171895958297 18.53339948407407 12.754948214691586 18.522211805886194 14.694356224940828 20.801247687007745 15.691578574417928 20.983172492873425 14.964333808453285 16.083423982536786 22.119365747276284 17.758846006648096 22.46493299374525 23.425506669993986 22.643687824546376 17.51210452271093 17.28195543954844 11.21114515606615 17.314674337875495 19.165649901883942 16.948551688292515 16.9943774949018 17.244526256725113 21.8618039297632 16.26577661714163 19.75901929217294 15.917814181232613 16.10765430152523 13.277090315681473 18.70530725250559 25.524184761730808 20.945272791879926 21.068908988946603 21.753417214778807 13.189129963846087 16.34703259916051 20.36679103599843 20.255047005471575 11.339475005542338 12.458495256651965 13.828485144092266 17.54144471545113 17.36885410235917 15.843138009210245 15.579763854945854 24.84000944027097 21.06849663231647 20.757764820767814 18.042578177299255 18.616753533890705 13.908014503181846 17.159302558597243 18.06558889259557 23.266506285074495 13.893507772311253 16.579078351704986 17.2685685609616 16.669097367234553 15.169026180842035 21.257017058882933 13.913995412021983 13.62581381033368 15.234342323070134 19.49142486053296 22.847530871207038 18.83463408221563 19.0082493362556 21.22459446378645 11.822512841794554 12.950519413359476 17.205835785412976 10.306626929146937 16.04718861887656 18.44613565532354 15.427231208228323 21.7764533328356 19.984270194416638 16.874270690677584 12.174003444828262 18.53432358660905 18.203951077305693 17.18172481586293 12.90681623881963 16.684976172285793 22.69373992604859 24.73962294298446 25.9089899795662 18.1323147564389 16.773344590459114 14.35309272584852 21.250949560215968 15.462911508338566 16.102839866707445 13.406707996206793 16.996144361184246 22.19444847901952 22.28289193033319 22.9623682519718 21.886781988050554 18.659500798792855 20.39286026210717 15.98051629479369 11.52427160857527 16.75648005778348 23.02748823685442 13.349884248802542 17.355919672954688 15.70748976950413 14.377798112923191 18.51402460317896 21.745608594550205 16.37240993825676 10.561374306674482 15.43925885075986 18.691830867046683 21.032482592262035 14.496525843920178 17.75309196089818 16.372456625487104 14.328606819470851 19.653047924658566 18.82024912949522 11.026968312719676 10.79930705440927 11.77348944332535 15.939192915845247 18.888053516767712 12.2573601258033 13.197094075879006 16.503885198945838 19.807151313122237 13.347899617793178 15.749380026905728 14.134474389978864 21.555695431475577 17.595933787167727 19.27019940110135 16.129768907310016 20.653645894462564 16.018483463237626 17.02094593385475 13.52314502648943 18.70109125628872 19.193563316783344 14.755630997503635 16.335185826418765 22.941603976110017 13.069160628435107 12.673008143422551 16.198829059057168 19.37235074033753 21.029487568995556 15.481165740249983 17.946139708382955 14.056372732635689 22.23084568833875 18.258850773123836 13.824591504857315 16.005703490250177 16.385275051242612 14.991336539759006 13.552321072165403 11.658672911903887 18.78068573960817 20.67018942420157 14.381810440721765 16.698281902682425 11.753444995396247 12.160520446182245 11.375462815144893 15.47671964395082 20.183995300934942 19.243108950408484 17.626311048100376 16.128131678754965 14.309070411078917 23.407447903605313 22.056401981675066 22.637592161550415 17.74676246468554 17.810268223779218 23.264753464924926 21.837223976472448 17.788667299929457 11.735058912358804 9.860905277136542 19.648768251845077 17.34484936749462 13.887027476076131 18.257535165806388 16.805036493445304 15.644130309226504 20.500678281302108 21.529556933237608 13.333494294008498 16.16542567642373 17.758004538795763 20.141865088297713 22.297560615230385 14.622630064474963 21.358040491123987 13.685805044101846 18.99635679778428 17.649891353145033 15.677336154382989 15.7458930213214 21.154050624736044 18.267847161573453 17.22007490750542 15.991908517114792 21.685261110371286 19.996496609568414 13.340018533629191 18.253665643252987 14.436007215074584 17.006172404014425 18.636055628453487 12.138492433674262 13.653948268938022 19.748869903823163 13.244590241501378 14.548006584019873 17.775819125684773 18.75525297789344 14.572064927624119 18.444849765906113 15.905974262334285 21.48245116741307 18.07778116005123 21.76904560295042 23.21278064822633 16.06720863160863 22.849537719101885 19.35502168175768 14.040845883288725 16.66513547184773 22.741764083942964 22.88263783547212 14.613055926823614 19.253471010795877 21.04765593893353 12.887152977846608 19.969568094532836 14.484594978781121 12.778444609693807 20.89426265743072 11.770540398179433 15.40163932253083 18.78399989594536 16.74285980303249 16.607943114127938 21.252874691527563 15.621497289260624 24.15939913943566 21.401306879179025 14.375435299280657 14.559062180570962 9.672930183846335 11.421732159464579 17.9