# vtk DataFile Version 2.0
Ocean Simulation Step
ASCII
DATASET STRUCTURED_POINTS
DIMENSIONS 200 200 1
ORIGIN 0 0 0
SPACING 1 1 1
POINT_DATA 40000
SCALARS Temperature float 1
LOOKUP_TABLE default
7.251524640229436 11.83535581825659 11.389446686888094 15.865503503229268 8.863628521205886 11.394502730777226 9.059655899869979 15.613403409946361 25.94113414511381 21.560521078843433 14.219725905759715 11.252244733257836 15.456374391032696 21.390377947189982 17.80241993352606 25.273055736363887 19.28393129369146 12.178271063104118 20.363326038293742 27.92567000106583 14.97742074687376 15.163180335146158 6.641545530954255 9.080638118308071 11.668799892168265 11.107370107112231 21.050958410101554 8.638084760391726 17.92018357474341 28.542729999556634 23.593220406446463 20.433045773999517 19.998144804409282 27.727709675607024 25.74022125898253 16.91641049951212 12.262472193245916 23.186519308056013 8.848325574653169 21.40921668971565 17.288447446174764 22.159462015794293 24.244732239356313 14.48784960925729 18.610327969565027 26.103009680992148 22.180107582128866 10.149749841987507 20.046190454262607 9.213803956149453 15.942243478289075 10.881338806152087 17.775569707104445 22.71651465218789 24.76104913258316 27.241266905795197 12.583284390255681 7.032871532574368 15.48964027778785 6.90778129410007 10.050008400763161 26.802310190609923 25.038604883655807 28.499806366634285 25.6876876209375 14.94279113105298 27.81539687752384 22.96091146244516 18.190806425725974 12.709158926919796 16.069952469416265 22.747129855524147 23.785596040869724 26.19968379656899 21.29180388824443 18.379936984879034 22.398621295007707 15.566630510159376 7.734215453253014 18.62632451111939 17.375362419729484 8.646551909506154 12.00740367578268 23.834075304235725 21.073167210929476 10.996045284673693 6.934155017891281 27.865865410488492 13.934032126973712 8.996456116329302 24.531155722134752 10.457536659103692 9.026087202665746 7.5916612956413285 11.78713013425715 8.321597503358547 12.000801417170344 9.368667058604627 13.70362791702976 18.809789484729237 8.948898969471513 26.551502830240935 17.28932905485353 18.48194454822959 11.62066924753698 9.37451199944458 12.026734936797636 14.206281811051594 10.588001311390808 27.485851438698376 23.978127432866156 7.192516288525631 18.38160365305992 19.333615165885366 7.110354349596118 21.49593357319591 8.53663878951997 9.580359410349146 20.53121021358741 8.500758253526373 22.999354847679857 15.195817882181446 11.865976678903271 19.32416662682679 24.149343987680474 8.49591008520282 22.433633187366002 7.399636287358415 18.887325054477376 23.361454704792557 22.198805399016056 23.354759805233435 14.313853633600521 21.859332254199742 28.508136027102093 24.716015062381373 16.385391471425034 25.130174133381875 23.28100601622825 21.01735551754385 10.02211780857939 13.245012917089323 13.05192973512086 27.811311098589712 21.28514742403009 6.840815065920985 17.32043251099384 26.86462133226725 18.435387518422377 7.699791130734226 28.012482440135543 22.741670387179543 24.647007286724318 12.642369837060054 18.092732967092363 13.875653625823421 20.79840263133322 10.876914191109528 17.994733300897185 7.893293134186003 11.224481790407808 17.328996379340115 6.762545690079419 19.325826778531876 27.79224089019866 20.59389107885221 19.674110221585433 14.109940285805319 19.5127456643569 15.212777632531846 25.85872921262178 21.71806934682382 17.700271011652273 15.876907774240216 26.24475632159057 18.698311085214836 25.673820247775794 10.917902201252344 7.896472768144269 24.647934204607086 19.747735025412787 28.24982008273799 8.990218385155432 6.38739701480666 10.540218133269608 26.68606134885554 23.60411998166419 26.195838153450435 23.314875915025546 17.785815263918384 10.445257145185481 12.06807180161867 21.40609707386267 11.837890192447272 18.458403964943777 7.20761027714349 27.24031058005395 17.78513203608422 19.601514914466044 21.411275071344438 7.653324070299374 6.756999044006179 18.79289185438989 24.09861211738105 20.30726148772366 23.963750347342113 17.956039275926756 13.436788893240998 21.67498368410766 7.615562015691226 16.926322460274285 12.777026001857788 18.539524719389785 20.989989507991687 8.269167651315222 27.974455361165514 25.99562247801328 19.68975420770154 14.337480717935186 28.300259994933867 28.544913960586086 13.333307667449251 14.620244867772069 15.570304422879735 8.922446553802668 20.28102082873305 16.942820560596672 11.339901795552585 13.936707419252034 13.675772041607763 18.430700341768762 11.844236441691706 26.601662686524925 26.136991999461046 19.454233810978586 26.278734468129283 7.953891546986471 28.181044470437524 16.342019718379845 26.11826214213089 14.541688618902864 22.6677722065361 28.309727522882856 25.37617082927104 24.724218516963244 20.945338642875093 7.1980435981577084 18.014142612398466 20.40119333577691 15.66460372108764 23.00787401671748 28.50278350978683 22.915694978487707 28.660808282900994 10.305173911396874 19.581126797325815 18.815277368714888 19.715869645322567 17.899173876893254 15.80745171185667 19.506415962999597 28.77945993457928 22.619164289646047 16.789628920541972 10.491141934997795 7.206242081419594 13.56425366729452 9.338240317121604 10.637685037464278 8.939554166508458 18.477219559053722 27.64902394241165 18.315248736545968 25.54309104497921 26.125965392847903 22.75109544307536 25.47665921249424 19.857754018535033 26.076424511825454 24.020825820791188 23.06027312926554 18.226816613085628 16.189865994552687 14.706724545686178 16.771792633718313 10.678476932974146 9.441171812711778 15.711680578090375 9.584481540344044 16.88839801052294 15.27975483728187 22.592720310826536 11.815163045005454 10.08567392394109 22.658976756361973 21.85331571730413 23.81338848660471 8.429135106267399 19.766336312662474 8.075778934727241 14.930056166883254 26.49489257844714 17.15346605526375 12.67844240476434 9.05166023856755 11.420701901121154 11.378647358218712 28.73432247939461 24.07126233885103 18.00650622118511 26.308681863677847 16.01904535525012 21.940674447947142 12.25695187935919 8.342455061959038 26.831099175625415 7.660391305182127 15.953809948201144 9.332383735107603 18.630602957841862 17.819985889601153 6.958798132870745 7.627247547582984 6.518197266421995 28.26422717647658 20.830124377599574 27.083672494776213 10.698655007174901 6.988554114952805 23.114139791268997 8.957478308937356 11.623105221001191 14.578752126166668 10.20299129192029 23.715200216285286 17.46923157890869 27.7525453308975 13.305846537465719 10.632588206883893 6.814311724411533 11.02400260422182 18.382573150691382 28.06343944473084 23.96512176423332 12.643285214522603 9.972928593595574 28.718917615975407 22.021809923857635 13.618985390065873 12.674787230716607 27.437987634925012 18.091990294650817 27.8243912914894 13.066219458828623 8.020130273177594 18.10085263898458 23.210366579908314 24.811398333990784 10.625857803783056 25.055143881740083 26.33889623543818 13.066147933958424 10.71487839890311 12.117298409952225 15.049845688952152 23.765920155376076 9.186532826395679 11.748125829187975 10.806575118910427 10.249807142131317 26.015421643075662 17.572420313138714 17.957112292629493 24.250335672593774 26.926300348202137 11.011102909341982 19.467586772276384 27.014887013276205 26.806986284873027 21.271165073284674 24.06316339138551 25.75847082911211 26.487603345768907 21.362511263921345 18.086883311464735 9.734021558265383 6.191467537168128 11.29612598718829 11.417509794200544 12.128702365439992 13.111971102676934 10.324082917920824 20.6132160315074 16.459385187446625 22.316498318499136 20.05214502790419 17.353852938257198 9.288890332801918 20.16133003359114 21.31338333521336 27.603113576402194 15.099946605968531 16.8549931206013 20.46630430676486 12.205798369789038 27.367042667740794 9.626698825863338 24.241390670119618 24.134081648980267 23.489676373469333 8.963404971613505 16.449463990380057 17.099001099016476 10.820782679375334 10.11824182732957 19.41204275982566 9.2243784951103 20.54268768901967 18.98123488871709 21.289710417051243 22.543801307073497 14.923084943672293 17.274522871538892 8.661331728738901 17.314370719312226 17.20135377204715 9.162590438656203 22.023076190836818 8.748418768336716 10.506803658258242 11.146103341564286 16.498310444372922 12.560087662561285 22.28625619953773 26.840615732945526 27.894135435781962 15.07103901825179 17.39729542112006 28.511787480013155 25.184421060779258 25.791081985607093 10.240915412163401 19.851737431370843 21.23012608686515 15.336017278705823 19.026415297850924 15.37220545853899 7.344172022356366 21.827839280469387 18.330608561472378 7.701574503102829 14.527586638734597 16.294635252780623 27.717756953948655 18.37949256098191 17.154831132879725 20.273524044198325 13.319339530833489 13.534637468687372 14.545053491413482 14.322549269234061 10.406329806937714 19.522262462144568 11.064824850655729 16.722414529126752 23.042546280081137 28.050217114555252 11.169339370529777 23.478611479352832 17.850606887026174 7.111434194820925 25.637026751311097 16.06294599454606 13.211507593054924 15.210153920071338 20.496939794879477 26.062522276541596 24.70670036925826 26.627309363001622 18.362862934867945 26.14388393717936 14.99699178915187 26.2851422969313 15.05716258300455 11.667575381025923 8.193530635266397 17.623112892066263 17.69276668143676 19.755997667604504 27.500640134531483 13.674382606198861 23.492686615142034 19.459068302943997 9.256539719952166 27.967250198102256 12.602512607166908 25.110881501833358 8.69245771669385 18.75568406015205 7.318055286262554 11.721852375714224 13.83040466287909 12.813471736504018 25.170107117342734 16.165767553017176 25.553844248206815 19.3802409702701 26.9082548340498 21.16236479885714 13.628619098750281 22.44605194446464 26.542286793969094 26.301990399531235 21.864968207132623 8.234871645578982 6.916232015403925 28.265997457914743 22.715063260586838 20.02253023236793 24.328063481488336 12.088836284045572 27.04487343047246 8.445631969866149 8.336640405805593 13.004547865483392 26.121232158801494 13.807254751962041 19.310926839545154 16.847064880811082 16.181003448897467 16.347489772421746 10.890464543536746 19.536104319406963 6.953747309453581 14.405755122791048 8.640160480995961 21.145957205569932 7.811308116788385 9.257610276640285 6.4632409670368896 28.043715758141623 22.182563136542626 24.521978379917794 15.460803279696805 13.727876070285385 23.39518818549681 27.731824377359988 15.382669207429181 20.561221277967853 22.969436398129954 10.281866400771733 16.101744980941767 15.92944318370001 8.661332939571967 22.498524898410107 10.809624463249435 9.232306109530958 23.756436531223617 24.736249412434226 17.15761039764408 21.272248880686195 24.806287174540152 25.66289359792055 16.874935125514014 23.694431801618876 13.271655496638468 27.81849259773688 7.187502203485698 18.351985684604003 22.079389008060573 24.476401071530415 17.562480507030894 8.278309779508275 17.28109316082396 6.3995124738629965 6.107092263045941 9.033339170239786 9.505562911516193 14.5947238088037 11.843538188489237 8.40786196768547 8.68765944795296 16.480211945857064 19.037762868630143 16.395440508118234 26.93878856225316 7.750765240641116 20.967951082476546 19.25153685827122 27.052721804238928 21.61515125274672 13.756193655426141 19.946397570299265 12.93975040919904 13.986123377570037 14.745931883960896 12.61945202708525 8.508092435992165 21.1075666089649 10.283829064517855 21.64440778048821 12.162280237362854 19.479408656849266 22.701785661831416 22.15384952073242 11.974678336698569 6.031536592527179 9.833609029776376 25.538640119844548 13.06549057468093 26.98499661008432 25.957491539817877 27.250170055936213 14.921898476406461 10.287209019655856 8.746970357416737 16.13479218915044 8.789703656179846 19.02029024194347 21.66888736856638 24.208251836783422 25.57629464306386 9.607677820726817 8.77048915752775 12.70343244061259 26.38412403959998 24.21987789156733 13.832832440972501 17.43492709268091 8.25163940051491 24.222469990692037 13.51613591156387 21.282370318066796 27.278042654003624 20.27177948873648 25.4478082231466 19.724763396564207 23.90250457315875 18.75057854513398 9.018287305001092 14.310905970993032 22.31168110407421 9.661749019257124 19.132617398810048 21.553868035055054 24.802043149224122 20.45758812678057 13.82958055104697 6.8291406502344625 27.60901227543411 20.682362662504367 28.314284663578277 18.712664946865186 11.086992960845759 10.3075636919172 21.20857927379487 11.75927417519612 23.037382399886148 12.939071523439864 8.415439958783512 7.182528530389968 7.106278129131361 18.462132392216578 8.44432338561747 9.601623101650489 12.714880015916359 24.428691318229806 19.9756330270484 10.301576043787042 23.413699380347243 11.838724875539553 26.086258379932087 18.948334728966046 11.991521420928096 23.939058274870575 19.458794157351996 13.72751624369109 15.833186786945193 8.265800619089116 13.932049406439084 10.629410208977268 18.180992803368035 18.655049330779963 16.157890824382704 14.466329749840567 21.664091919311513 28.120455554541874 14.431830244333126 13.04549636446309 20.350560066564302 9.239878022931821 16.039447097990543 23.214652361702584 27.90736889961254 10.760693999244433 7.919026227397572 7.862031440830819 13.550116672915523 23.805083047542023 13.845672220543356 22.358182549808376 16.317507458968674 9.545681714462827 8.608450025009327 22.804263421872953 15.432970251347134 18.5784265933845 27.861759842275276 22.823874049142784 6.757252616792404 27.457747690841376 8.692183779416496 8.058246171717347 21.36203726447257 15.04064169470561 16.235003889055296 24.498405473412102 6.927581416268404 19.174737761287226 17.360159795353006 20.376734239383065 11.361900460098262 8.594892017129055 22.74963702073443 23.582611285556336 25.079712597225562 24.880673692575776 20.63785968478543 21.92776904124951 19.54601893160233 24.69273621840821 27.223178272661322 24.357393680021495 16.056261290024064 21.439016782744865 27.828925456473126 11.65030906675593 27.581272564529264 10.990533979489262 15.528763085077737 27.178598060369684 17.88655696379017 17.488380133004124 12.264608257709211 15.55551385685333 27.640373378721687 12.174190917562514 20.450113427350843 13.226509685458026 26.563510870841508 9.276117193350586 10.115143512108776 24.25120767126343 14.649968005986727 19.782850499461514 15.58941590441673 20.56457507878189 26.677386717543012 25.677070409308616 9.805196870214136 13.074635194600672 8.069352867558901 25.356053243335012 26.237023021447317 15.401119875714016 27.228414203954518 21.07186145943512 14.396921455191476 15.251541266108283 24.901253076398174 28.15949105952543 9.3480076729788 16.275236607934087 16.06735290973143 9.387367138856192 8.466521587067389 16.136316585006732 27.992038166319524 12.799043882873141 25.154531482130075 6.855058633090867 14.128030935440776 20.25749175587057 14.952527918683312 24.959636678720123 23.192585044735957 8.71137904662792 10.801161919905942 8.523332352045461 14.010353645791536 24.713616016095656 28.42570200958361 28.093093443010456 11.78188720645915 9.21342447591451 18.018223847742487 21.45523165542526 15.494279537828476 17.65106298061655 16.253915419452742 10.880988706764713 11.2083779935657 14.420251648745962 6.722323621756534 26.052808633986363 25.504599867992614 9.402520597212746 8.36497117754338 13.042838308665246 13.26341177968268 14.706511543197964 11.960850142189031 11.762453440618504 19.848396973442984 22.8333587463314 17.753514994157456 13.732720078986093 25.626135525394954 22.23834437495871 10.126325403846664 10.104776524073745 9.42347535435847 16.333004086452323 18.71393169963763 15.002224864256291 28.29754028212123 8.916411942298568 10.687038798588553 7.317740893928515 15.629900262179175 25.237900014334347 9.198206785600435 6.422791758335111 22.965276553824307 26.289283340495842 25.240971174492188 17.367848469938536 27.60823545367117 27.824179715260183 25.440153473371286 26.817875966096732 18.571925834052188 15.806254666784241 12.254335564235824 9.980482932378447 7.789863760498517 23.440569794280517 14.498719409402076 17.35076902033238 28.5614862776693 19.699119273983044 11.443406550894487 7.544220890342108 25.16704771783554 7.446066921386894 13.49566989361051 17.45355959745003 14.629017333791527 25.5118586832258 12.279193614138649 18.791944021705905 20.27583889799848 22.737764404559176 14.08937251830382 21.06498802465718 13.919649234036466 8.74315509162653 23.20107505095292 14.512446784383679 8.833428940093066 6.609498293015251 11.837124879750142 16.53009977186701 9.179519612117831 13.72131015115935 8.685979384459968 23.115616190376784 25.70067077427678 25.032173200509348 25.197624315592815 11.306752866508086 14.803350857023316 23.216830928203418 20.20284867853349 14.616654532447777 11.235851923299796 25.84790806050528 24.142526220079272 12.126795439384779 7.551455231838528 21.006962075732734 21.969222279967067 13.556881540304005 12.003385474557684 25.113769921291055 21.312845014990383 23.884771936728825 14.226517927033303 22.857826103920928 23.81244545369334 10.185780551742676 6.739443741323461 24.08986333478643 18.975536421812077 21.878221695985307 23.790102066604632 6.9021286585867445 11.78443766819899 9.80570266930711 10.510717797292294 9.202682917397373 7.304241718497606 27.593309450143256 14.184320276839887 11.380679791633101 22.505209488021812 16.07638091833982 10.630416573819343 26.61777033721778 13.346682645544933 25.188446397631886 15.77254240573897 8.26215402761736 7.253766058751579 27.933053625686085 20.01936151517208 24.04948005145201 14.606073427680027 20.137248009373423 15.402591768161763 9.94391493592277 13.314033468804167 20.616324647649048 11.138529142848428 22.22710773088204 23.4971948475918 14.460025999490602 19.78195141786663 10.6122176719968 19.629826689498035 11.793890144175114 11.889689113156727 15.440628495714826 21.05976780701774 26.297776170001054 19.590307930491996 17.79719070842762 16.95264937512535 16.894444924039696 23.825635170714854 21.54052831741153 20.232343447409484 27.08906318528248 7.624130209673906 22.819403591220215 17.879043415746825 11.148584096227143 6.522665254513146 20.011601057943054 12.813831080562297 6.25813885747574 17.452384221690078 13.995427110653775 28.16467105779292 22.53260596803923 25.304597784631376 10.86019501992264 21.85846456677609 25.105847137181257 15.32147518552469 9.42045313201374 11.951188910366737 10.12944447657911 14.028144424392032 13.718340762746639 13.43247787363597 23.745785830549075 18.470286280869907 15.226091932488663 26.3692481970162 26.692548321843606 13.593495415820934 13.303079167706205 19.834876121962687 24.64943929700131 27.45491911702564 15.405830203979015 8.797309807355788 14.620330433425321 9.852684451063388 27.295667678272665 14.401719430733086 15.559156747616266 7.378747830515895 25.576021487879732 11.171220705330832 22.496035898677526 16.476331236203112 20.743649745305 27.637881700796733 7.451103160441092 23.526436765405993 7.830797388748264 8.320354224176329 11.70021465975061 27.753672702708162 13.1073485896381 12.757267168615789 20.145600051554972 17.652438341024023 19.792372559217014 25.433549908358504 23.29366011715158 17.169613543998732 20.282056277667717 24.322146430329546 26.284620551701778 25.75166979010542 23.108778693181925 22.781696832494855 27.404432331166426 24.078631496313967 28.00705392051847 14.488346777506367 19.892112459506926 25.836977094409498 17.85809283548792 21.351109608485743 18.221484930337507 22.120585839869644 7.780695960820498 15.971880654899177 9.617173057037732 27.677282270515832 28.025018351585164 20.567933085624283 21.829588109261564 14.089344714282362 19.22604563712669 25.606883100828206 10.61422474913474 23.19244677776121 10.851114849993651 24.31006844720125 22.892131347699504 26.35585442984962 25.120574162571828 20.95104002661343 20.067337401323563 16.690731455500497 10.461063359341956 12.228295350131848 7.221339138317873 14.196994087580801 24.808931866197433 20.627073794977502 8.973143898934849 18.215756845303737 22.634794838392054 19.61576744964893 17.013606015406314 27.5589981591057 14.735417848587064 7.517272463758206 9.04890974215787 23.638954095328266 15.632869952715488 18.443212466462747 20.308723511087102 24.494395193526888 11.284945178098587 20.718489383177207 24.92623693650967 10.346482210946283 28.578976941015505 24.304015584984867 25.988417535332356 21.663721189471637 27.299870935307766 13.738762387497099 12.613483055819723 15.2794602329205 17.559569163177805 15.106035958942742 18.732494117418984 26.40645429834342 19.461522925504745 24.571168670805697 15.426965548339123 6.597736629925682 11.205224843911422 11.659371277257334 14.912523313675168 20.05822355402587 15.807390396403202 8.829582937862046 14.893539807515689 13.751632371640866 16.62774268331763 14.974782636301166 7.535799548387958 14.71220531510284 11.192718424635599 19.255311460425325 15.3548315064959 10.308762328054458 26.360911155264567 23.476100592605025 18.67187389319148 8.423335472172266 16.444420369523858 15.616868495020784 20.078870898064235 27.512513300238542 25.337031874882644 22.234072816964417 9.001030099979497 20.42776184859245 23.26120099013599 7.946006309447276 23.08652837733207 27.18929010277774 27.807921656223186 19.467585497937822 8.661155421689818 25.242353123436185 16.071978164397077 10.445918992187258 16.647386707828133 14.105943968195675 10.352501051694633 10.095988467408107 15.547720689526734 16.25620699728398 16.398310301674105 8.191198456410746 7.930530220101537 23.438107435484092 17.61534438656135 17.051485738309278 15.401223295707286 12.000485935688983 22.060856534982147 8.616351658900657 11.747999571444232 25.269808498010573 12.917819932735023 10.980560114268034 8.148306309259942 24.92300305623515 21.119769482104086 16.024350162965906 9.246485121955839 12.347777122759998 19.62653858830124 8.792739591088079 26.89742667256246 10.957373524495509 27.187463008074552 25.176496376501543 15.010405046937457 16.96726250497181 6.437899269201321 13.297628480668651 14.460823712397127 23.88864322008787 16.970581272478356 26.270253802205346 28.912375785568052 7.609230367624686 18.50442436762085 18.8597159629509 9.423634937703497 18.964734987183697 25.414560897444183 27.77921325636304 14.331928147995546 13.52788833628391 16.696248897800363 12.348372412856106 7.234350662196771 21.10001111721785 6.686194221325683 22.40091798597295 21.5793404677915 9.896307457848502 22.950183750957727 8.86014600781333 8.963865505178962 24.652873311892314 9.592858982249368 17.570225513380798 9.14513207855759 18.946180243273727 23.712469659624226 21.521329489772377 18.785036122197067 15.394015080351158 24.781370874752714 12.752944968289734 23.9945075738421 23.09056478504485 23.283498032908987 22.12613744377998 25.871826662508894 26.6561955706869 13.17238129403785 21.814691767462424 16.041889369978804 9.538725792832365 12.914540972231139 18.10562714392168 7.99157910247244 21.44386364813358 20.522541169734158 13.37246137950018 18.161252451687197 16.14356910398688 25.024332488077285 22.826795863513716 15.843230954214887 26.55525713300054 9.665540128867642 23.394050533349564 22.56511285652122 11.27565244436829 13.240734246867055 10.19162273474492 21.466548902750606 22.68414224473998 21.26106457976499 6.791291211374275 26.319530065589177 15.690249397470811 19.74055873194819 9.744432619304055 27.53688596749148 26.36854124114485 27.894560742522927 15.808631215597824 19.84023070106382 16.779878635287062 24.557719434362276 22.147930821121978 8.112515457409607 19.909767716441863 6.938086730292039 28.533729442970568 28.771410760811317 7.998052873278055 12.395745783367502 12.133469459022491 26.309358065837248 19.170493058259524 10.509181860202938 16.76012395716901 28.259001212571235 23.434090452551928 9.127315471511048 17.28030690252315 13.908381176490384 22.240989725899677 11.1524957228857 20.35394142331652 20.666157694662978 18.817206473386534 25.57402553536994 25.60722092098122 16.793508168622523 10.7091368275208 8.114196359598658 20.896163450621575 13.873928657510533 24.765373170231975 23.69102387886742 22.688915815277063 16.414723750321578 18.801238378146 24.331052107288013 11.092077389431651 11.952319578203618 27.26878570499353 26.324281069401493 18.24648674223017 27.26364669274994 25.729241327537334 24.908020103476005 7.5390780368727235 6.749672206579122 27.489540650979194 20.237676629142424 20.579561927726566 18.538978669553813 21.916154542685316 18.201690944914798 23.08410913189959 18.46315228249345 24.609275485907435 24.438861719328198 17.628677193328933 26.904606458334158 8.768782519457067 21.375900570297237 11.426614995342467 23.56588706231829 14.562228568119467 7.443407822519289 21.328912315676394 28.501449893232984 21.369617439286817 25.284032842495726 21.637574244578204 20.397216136749478 13.474769845472228 16.14383986633713 15.791220871132195 21.26185907275155 9.32468344643587 8.788151738299566 24.505159089461493 14.750371729926341 12.74790218653777 7.447896855458523 9.48847180422905 26.69741964490617 22.998338284193288 23.265519317734714 9.597290965022756 13.309689457527487 17.231875043856558 9.570447571323024 25.59870571612919 14.336586140465357 26.52553604260906 25.11833248917438 8.107824743542626 14.013076213202858 9.628862090890625 24.906047409696708 21.189767032475903 7.1214676701972275 22.94900483728865 10.040468372400772 27.62160346405366 11.212133655411694 24.550787457566237 12.727608007835691 15.875373906870138 27.383505826964235 12.83079908745638 26.366018293808516 25.580565274099655 28.079995466157207 16.824154203264623 18.26549140378924 8.284666783447426 18.2433875431118 20.833219882692195 15.832223054692783 16.613006845355333 16.189660017019285 26.079689618524302 15.741541116075718 22.819962266554025 15.225941976280838 13.995075020660368 9.913300318209332 16.182851016729828 28.16235669634132 23.49282764315603 20.4334917205028 25.426641670338448 10.805580033747294 16.05420131681647 19.568901903184393 20.495840858482367 7.754015130034113 10.835999684134343 10.38674388627911 21.14262000087335 18.06857702970308 15.32949992318377 15.211162433471696 28.948209579509914 22.127825895511933 24.54838727474114 15.688955065949436 22.53183521323739 11.97570447203171 15.331845157861624 19.1554436425014 27.830235287865978 9.271169581194023 17.981729495346677 16.740625814949908 18.108169652459388 12.988178228059468 26.58547820554278 10.338993672778274 12.972575852024569 14.398949313026794 18.952669032776072 25.734623736706048 16.841567293783502 16.682983971504857 23.988879289989313 8.799450468952505 9.869764539905646 19.633485638915335 7.00974612957184 18.415394105374844 19.154987353249826 13.821628752826548 26.65788610500046 20.257482631491488 17.537089660762494 8.020150074146434 22.004734836723618 15.884056566360186 16.178451000119196 10.753651219742826 14.918384183878649 28.046818184508453 27.53556115593986 28.864766010793055 16.42036882896903 16.338126266273534 10.219908343484267 24.516018957398284 13.317220824846709 16.97488802262421 10.734022341101735 13.617628722920815 25.46080781687063 23.44675746201346 26.225851455483497 22.43194572046153 17.18681494310841 22.31259454285348 16.104835291246072 8.276859832339747 16.068197914044656 26.59544674499812 7.670397889678536 20.887981090793787 13.158188940435732 11.645344783164553 16.981588234130207 24.268808281402148 17.282089583382994 7.5261502835026155 15.60349002057171 19.48442187404813 26.031786658371633 10.489386738308786 19.06621485381931 15.98757071967331 11.398539836101001 24.026343767806882 19.800012738702616 8.661054084184538 8.40683596306888 10.045960053458975 16.227713927347956 21.242550883918465 7.906759750192081 9.961920735177594 15.66398646579827 24.667007380776976 10.673038540617856 18.18574068506708 9.14556518577544 24.978444167771052 13.397321598914013 19.750669036233496 12.646318484815815 25.22871803456177 14.650411923042201 16.631411640763112 9.09391857759968 23.013690050329668 19.287825235217014 9.205812720582452 14.39248153240724 26.94417847150368 7.942441038917579 10.513743113706578 18.83891461964731 20.324452069382275 23.78465405015312 13.514719964881522 21.17932625218998 8.094429453079723 27.82326962644686 18.248430920584855 10.846711368531126 16.616001455161808 14.90491316944782 12.473322091382846 12.031916892949983 7.125167049565288 20.689750243350005 23.114980528425484 10.492311529235236 16.26948298853726 10.187594747293392 14.21639971438028 7.869402836787484 13.381911344382521 20.744770276813156 20.426231061192645 17.538351117381502 14.624072015320953 9.705173671192552 27.31673404273433 21.3070848792406 26.989818489803575 16.64203891002911 16.71983610948101 27.218009827252192 23.777859588719338 17.26446780529624 10.09360794531422 6.881779500232594 24.351038206835742 16.736337020460137 7.737078266746555 20.57265751426695 18.08381780569443 13.421012133517271 23.483071489677968 25.240951104544667 9.947655164420008 13.113608186158336 17.173176435297965 22.694890132327952 27.98719947515004 10.344436143034025 27.682534458805424 8.408410891053155 23.89364063499434 18.16560153163295 15.926680871937164 13.95710586848598 25.29104064267625 15.832953503497487 17.358587539558325 13.876905227602077 23.473459454361837 23.416298111705704 8.556351861948304 18.982248111130396 10.799438094242813 18.666395642046087 19.57967762890395 9.486741077636472 10.285469610281407 25.062613143685695 8.45711375522454 11.384904610201284 17.682353208214828 20.607486618885122 12.44515265665838 21.291041231401323 12.716054191312407 27.8744266957111 16.445080511263082 23.64665808266275 25.413507470127943 10.415760647436286 26.305833173807624 20.62833356364826 10.801967964694732 15.40943702337291 27.003313497215988 27.644321226182264 11.802058260753379 22.449352888316703 27.748813293477014 6.98074031042059 23.53935702284566 13.24164808290811 10.647426994290232 26.149664141317963 6.656770979804771 12.647566534151888 20.885267967137867 16.003903641308142 16.908815640549975 27.733098882494225 9.12164709595991 27.93690175534858 23.8791475575909 11.69540482221445 14.252904378590225 6.8164704004829435 10.44663044363122 18.35056563171752 10.817469245941707 7.649791019302631 13.164076363109587 18.340464002957496 18.12725932654222 20.656516252440397 22.7103579123694 18.807407593925756 10.227735507585477 16.