# vtk DataFile Version 2.0
Ocean Simulation Step
ASCII
DATASET STRUCTURED_POINTS
DIMENSIONS 200 200 1
ORIGIN 0 0 0
SPACING 1 1 1
POINT_DATA 40000
SCALARS Temperature float 1
LOOKUP_TABLE default
13.428166989591382 12.649227387680432 13.986567676968491 15.67575931939598 15.017445352856253 14.982682213274057 14.019095736868945 15.78606357017961 18.78839424374514 17.18917770438014 15.262997188768216 14.731044590200064 16.57020318431771 18.31946970376548 18.30936369440145 19.671292684651174 18.827597745567076 18.55673269226087 20.103125145044945 21.250959894087586 19.175513561710698 15.829642710634722 13.134545822980666 12.810224167867196 13.605644281670788 14.186415562005402 14.777277360095518 14.28992327615836 17.49168239358217 20.53945821788396 19.994309505561993 18.35646659581664 19.380068801127763 20.890436875143322 20.61733129936205 18.14950541198487 16.711837097266475 19.340761088920843 18.191535159204367 19.431106419214515 19.74796634418691 20.772972456046922 20.24703469680262 18.694857707919287 20.177973343721412 21.160604961946227 18.42940532805652 16.020219942517095 16.23292824536654 15.51997332924151 17.01402893396892 17.678409590386938 18.25088952487041 19.79400792424843 20.514931969411155 21.26494619763276 18.125103158222238 15.000390455622492 14.697465633879027 13.51124780753506 15.22290062945435 20.298400699592754 21.821964419792945 21.433171967141853 19.32737800366184 18.07041519276643 19.838182353122694 17.886220711543682 15.493695679037225 14.25694733009421 15.656209460058149 19.220066325467478 20.77923059371274 20.68357335849173 19.434792735556545 18.351769406394137 18.746717044302937 18.33763592670899 17.119011152422537 18.168184940210764 16.718558958791487 14.874600110428673 15.453696738048691 17.53722428270142 17.262576735614612 13.793814924923678 12.881677274659685 16.29784475667704 16.506886474903418 16.62439351561678 17.505048999153907 15.574477400732642 13.326357227180473 12.503131020559309 13.842580109384377 13.24097018731896 13.077247253369098 12.717692563527185 15.166055377904668 15.938690539785938 16.35649447931741 18.576197442373296 17.397070668534745 15.78232612457885 13.438506118470977 13.442275455999823 15.932375375725497 18.06076836614531 18.197599230011118 19.468770904860918 19.37068650242431 16.025870773390373 17.479462781442702 16.94349042100196 14.939620062130277 17.04451882272153 15.024867298342725 14.708419485091376 15.614804750567925 15.675048572196873 15.711369945144972 13.98084458042593 14.274508901208039 16.922916994178156 18.871084261878657 16.88656342138406 16.947396631652744 15.808707675986252 17.174756322850264 18.97718902153106 18.716956038629043 17.20274980062893 16.573587796155916 18.293630767417017 21.409036656272594 20.822972905384272 19.50877071665853 18.784004046970562 17.169832294042518 15.543968157563953 14.6550302266556 16.08208070026092 19.025985694014665 19.80137024721266 17.70367179447734 15.605925064621854 18.668148739432272 19.922236284553925 18.94748616760945 17.907481370302147 20.424962079073637 21.098893269366787 21.096220740077133 17.21431501123878 15.86822157434948 16.872852081246993 18.01842782145809 17.34704105514404 16.235433326124582 15.195079255467816 15.573527318185398 16.221747064335137 15.820099082126386 18.56698546121451 20.221653555904183 18.792766721422627 16.445584836861983 15.033416539024675 16.545558748302813 17.33802204057702 20.16244904320873 20.013151743125665 19.230306952806743 19.80656274026652 20.878800523611833 19.12397429106113 18.74590925250033 17.36441094861531 16.645465959522546 19.571855611949243 20.40023915650308 21.19225561017253 17.29695174740449 15.315605931349175 15.429333798645915 17.747657818482402 18.333456574793807 19.47711052302853 18.087743083439296 16.675801790484634 14.55813928328728 14.067214048643656 16.444751320567956 16.353978700961722 17.125675584484554 16.23170045241573 18.002510891455174 18.446969981500693 18.824147848183625 17.162113715724516 14.15841131092883 13.214584203408311 15.959783908576805 18.384487185879074 18.034301527290825 18.19416321236794 16.16445962599628 17.00046380740437 18.8079558936678 16.470341212919227 15.265488939494633 15.338285052228857 16.803618408608862 16.981118569921367 16.356998359689218 19.712702668721953 19.70314587197412 18.899770674372647 19.70033754041338 22.34072934279563 21.21287972175229 16.794110034045797 14.069676220164817 13.105395701987035 13.687588497979304 15.60208817117688 15.451207745646798 14.379393794412175 14.825760041679144 16.232303989195294 17.151487751494223 17.41209998293051 20.36249113737684 22.71533374930475 22.43817187023288 20.836291049260623 17.74334194210178 20.192406212536213 20.12713399559352 20.949005345054648 19.90703474376464 20.58604790181173 21.91948691033202 21.433439089558167 20.911614127563322 19.579164677119863 16.13216244615254 15.537158724888716 17.201126363943434 17.16986176864736 18.41537878992702 20.13480318654939 20.79203010807215 21.4663688650163 19.039993677860178 19.13958716432416 17.899935040858146 16.38248042585487 15.670407509462988 15.02504184587541 16.798054133827815 20.19734258203216 20.456569866490423 18.153191226195442 16.000220330505282 15.504492418627404 17.01027138945348 15.290529923947684 14.499714957619899 14.290485653548892 16.623630361825615 20.73964455081647 20.755196626342073 21.133881947626428 21.364632400614806 21.3087545430022 21.830885932863644 21.041018895904486 20.797779009872063 20.709042934098616 19.647229575791155 17.390277989397223 17.000929050584315 16.585891566568325 15.37943688634051 13.084212944543467 13.367880917397088 15.592856708657154 15.60895556740455 16.789978250838164 17.253188961543383 17.215575167593745 14.876108772045558 14.163770798702728 17.042978817366162 17.062630196851096 16.630561569250045 13.915097309071664 14.93527416219891 13.888972595623777 15.350585398427606 18.245144278257158 17.034908641166485 15.631402668097898 13.973913933281652 14.577185574276113 16.791630078066493 20.69708049859534 20.552653801387418 20.04178683313688 20.867865638206116 18.79788344961386 18.71274978534871 16.27660632711669 13.958466592070023 16.329825983441584 15.50087093563786 15.417754954889672 15.75033925243125 16.6402601704768 16.020855584303515 13.537684120474209 11.839997101685183 14.072604175052872 19.06872413616041 19.842236872243387 19.14292976798299 15.800581249609431 15.415249783622773 17.32429061450223 16.059669155261236 15.234525167310446 15.372041319879779 15.826999347382952 19.004797795203807 19.301836773911603 19.36237262666461 16.417679142675265 13.760805224267745 12.961732072650213 15.31474783978467 18.26777114299487 20.921603864966755 20.02960360407355 17.123879305402404 17.00451447659018 20.606632129243682 20.151478604390864 17.984140192137634 17.611302365814048 19.708776428329973 19.90763607276196 19.87882688517787 15.881492988511754 14.971422108047843 16.314870350209485 18.4812817868303 19.394235319499415 18.188585038609308 18.450412500850874 18.72644629559699 17.10049159451307 15.875811894172378 16.85494305392368 18.638283779799238 18.627863344776156 16.151717885510667 13.951673978972206 14.955093374244601 17.062489479419405 20.401419007134184 19.06793109051046 18.013613382830293 19.12852158002301 18.6820779869841 16.09806013136896 17.373126953882135 18.783198432036198 19.090931992022053 19.59432287318561 19.638855046016314 20.44285145611566 19.49400491665677 17.951987228595502 16.85856127729089 16.069117236303796 14.211788049133329 15.437910953893228 15.810429065198399 16.031315896224477 15.28077159108744 15.068834718717527 17.234003623956728 16.74482380497633 17.417477157697725 16.87279407889438 16.62980348597264 15.70089239235803 17.594715884297504 16.951855906629657 17.29260433290374 15.710500580003725 17.120758247423677 18.703350550759996 18.385780519729668 18.398104141077702 15.60877580368909 17.528547677967694 19.801632324231317 18.050525543397846 16.610934105660032 17.081980074470223 17.275509890067383 15.312784497261518 14.198387823946996 16.300631762543148 16.512171181636358 17.620522318682344 19.16639415353546 21.145147718109264 20.871078588804057 17.588810611927112 14.740693961644684 13.187890236867966 14.805097454566887 16.960411077470656 15.992665355428432 15.236336975304004 13.559735422213107 13.5182141690127 15.221620958452545 16.068381223269956 18.56476009898555 22.239445949943 23.522940480441935 22.827585376901585 19.503039246633143 20.75178166591765 21.826841172674033 21.390065112085704 20.009713069889255 18.53532074974715 19.132710665897505 19.766139965497022 19.28940924046432 18.643454795767077 16.12539598032864 14.707213800874877 16.780711456779738 17.89866122652041 17.249622359311083 18.557642592866067 19.20629385928284 20.105141929158364 17.88584184814016 17.894358805108926 17.415779837312268 16.375554859849963 15.08586632444138 14.031016809147122 14.350338531897032 15.708960186259125 16.956480855317917 15.114688099340835 15.32929070010572 17.29338036980562 19.034989519686533 16.800288446463345 16.39814646558347 15.825483663397968 15.772775890247571 19.622168134431444 18.63974063312168 17.73646383423194 19.045657548707137 20.382086376494776 21.6598791865639 21.539174901390975 20.959071137215968 19.93575539503148 19.47368801085153 18.35653467419803 18.71456889358525 16.577036055342997 14.642276994463986 14.254277778958826 16.291835686211144 17.03648784316506 17.279286014499444 18.482362107276497 17.352822614457516 18.444684787784297 17.5764022888529 16.65249889631368 18.168180148078072 16.754672627937058 16.72423546146847 14.582269735475833 15.581546357600883 13.684299598670206 14.435585392673532 15.686058438698375 15.65995696280122 16.880226296897842 17.262380604803024 18.366831307368987 19.373888346551315 21.99793238192817 20.396073582089343 18.183103258469373 20.200255849616095 19.860543012517443 19.67867449469717 17.519326134213404 14.167704266504721 15.57355612968676 18.252876538692437 17.954160652962027 18.216227211519875 18.549836436860847 17.20739756486611 15.621793060298037 12.446427157175936 13.745918323181098 18.258522304141888 20.84162011574821 19.71787937087643 17.777979766824657 17.079398871821297 17.426297577188294 16.756256830341826 16.292796344333727 16.407205472777413 14.779603978306564 16.622898583544007 17.119298566150015 17.331241689082457 14.893779381170543 12.558596755177515 13.610076499934479 18.514150140145826 20.05908548046167 20.408712207548394 18.314333296938166 17.449695026470707 19.642790868510605 20.98336861690426 19.400340261786038 18.463842644697316 18.57775589572192 16.92819421826209 16.85734346466059 17.482125105055932 15.217388007741482 16.02214601357391 15.617536774199781 17.107702427475665 20.22323459281494 20.238287309855824 18.58754014033542 18.662205266052133 18.871831635592837 19.593850943394063 19.409767027311215 19.65868458209964 19.448160879688658 18.280495368224166 15.239628434309537 16.649042574114926 19.288112568781738 20.613534649306004 17.29277762266842 15.131116778616223 15.430920989803662 13.341666689947564 11.855282587259302 13.97124601813604 16.221035158106613 16.656114131322045 16.414433862872617 14.890085102071733 15.61509940836119 17.521021943040207 18.317340204600757 18.809673103259012 18.193761940125942 14.272516597580706 15.11293868638077 16.415461087616762 18.47916866468919 18.93045975039335 18.072950861271753 18.219553781835103 15.80314621580101 15.548222108179807 15.790333208640464 15.501135815731693 14.747998621312078 16.980214959766297 17.014801405015504 17.376092965011424 15.741211622796124 16.796206695887427 18.140767430010882 18.800189506238322 16.97957912678214 13.120118306831186 14.506192024570087 17.945769779326493 17.731892207067446 18.905785928442537 19.719431998980046 19.172567547247738 16.49859709417657 14.697682336607103 14.778007770857968 15.492395630874146 16.86112938716104 18.756459541255698 19.670368372041988 19.860287114473554 18.078949364701536 14.980157743455324 13.75274148980232 16.02520834599085 19.462770379253296 17.757240028277586 15.457213228874595 13.979034452740422 14.171539398955776 16.574990754050447 15.969345448737046 17.99349051913069 22.214530341967322 23.446525645499708 23.185464601918763 21.048258457470595 21.67490774229859 21.234224451045534 19.325283763024544 18.786220090268998 18.000835339116136 16.700364324742555 17.685313598202963 18.361955089734533 18.928436506807287 17.944805903057688 15.622162266321402 16.4662168970058 19.868513724227814 19.232600508348767 18.93557448447023 17.323444081195973 16.772190525182843 15.344522121827543 16.52358613483403 16.513492915816116 17.002553766276073 15.586462875203607 13.191537369356173 12.833941841896202 14.031647947304997 15.601513503017488 13.662781722233584 14.14625022298386 16.179395898147167 18.46698206933093 17.822559395296633 16.304366059648377 16.04784172305662 15.152724649068153 18.319767435097457 17.609078232989077 16.087698383228478 17.99519847916634 18.545521880577237 19.195399880163137 19.2352691326545 18.10955291343655 17.171275141401672 16.288597176185384 17.219006048351005 18.52191343412367 17.15488256718918 16.12420595536723 17.59527245681166 19.964247642503686 18.19378143675334 16.27086879972332 16.426801014996883 15.923603016636248 17.7621198462699 18.77345783822766 18.59282776207846 17.180542300997327 14.927409449016725 14.999481445453712 15.368001072458533 17.682391236571444 16.304517343188508 15.643434823836706 14.776497552641436 14.693955238715741 16.04255794117606 18.239654291005543 18.5460070553019 18.658032720144725 20.4123123834165 18.353060062820543 15.394989479922819 17.183620427086566 15.992825238558034 16.92106493517408 17.358550675001688 15.772406264720354 16.841543858400872 18.10900229315817 16.477886845901622 18.111553045149794 18.24801427179018 17.931322824788165 15.60119779577604 13.383691922479002 16.01991702679379 20.230837586016914 22.197164825196353 21.31852888618809 19.408895405583586 18.89458263547157 18.425612890065572 18.56346729686475 19.136054670991168 18.98373481152228 17.020312307652677 18.656935984317865 19.16166901722941 17.518405779687175 17.20429071607095 14.644159704329464 15.809242847141144 18.857655675550482 18.472135500582475 18.05313796771701 17.131986808230163 18.295951926984912 20.327353258844205 18.918620557059256 18.03957828681767 17.956521489759556 19.35907687334746 16.64778597734134 16.391582686970356 18.004709822609453 16.150223803158926 17.290848793191827 16.615957304071213 17.59424733279942 19.77505849456206 19.906012336708077 16.22817410460982 14.997994301432657 16.29114700282281 19.67566386605835 21.320115274577017 20.71673605370923 21.102165875187055 19.286579525068344 17.421326623571094 18.486079502919278 19.90524462415081 19.43549799824929 15.510716984044695 14.125969804919817 14.282954102733381 12.719900047696138 12.713219212085363 15.772169190601273 18.07252046229482 17.354023861814106 17.780288443444032 15.14898082489143 15.004355595369724 16.829536112091226 18.60290249283438 20.676123522377377 19.65961006946877 14.551394591059514 13.063362651371609 13.866422622822396 16.981143496267745 20.47990195711812 20.82737290199994 19.35847613630962 15.462841394652475 15.248174240559052 16.34946721767957 17.332699989688916 16.611593097289802 17.81988348637545 17.859019434114405 15.809188819553825 14.841529994325043 14.599898555148203 15.274229007889952 18.79666261396948 18.780245383480743 13.874780700302104 13.144264434323485 15.428567582331816 15.897516959007078 17.211280539247902 17.862708710870002 17.84769169752729 18.01006986941675 18.14253592295401 17.750486709633034 18.2245318922547 19.960339547333707 19.99328373722864 18.123289473943775 17.504146503737587 17.147920097712376 16.817013101295466 16.558792848986243 17.965250083402736 20.12602177917258 16.724849636816025 14.570157607630195 14.133047318794715 15.658569477060775 16.735500708041485 14.499728404969535 15.617026350878769 21.192936932910122 23.562406778504638 22.930794641560876 21.554095869768936 22.52085666610246 22.881330139500516 21.674015786572404 20.26526820987451 18.706347504990216 16.49981720402374 16.39855831188228 16.349517532033726 17.414767617002816 18.875294602439975 17.794275045947284 18.323717942641952 20.113418521293532 17.861606784253798 15.566979913382957 14.47318902576583 16.084173184481177 15.085639789913404 15.827736590601331 16.197699746866665 17.433582029002604 17.977483688153416 15.92399966858322 16.137600239016823 17.520688186979214 17.17944662891789 14.818257094772669 15.285091877478068 16.019062214575747 16.695201916174742 17.950590122880957 16.330453162600623 14.626810567664988 13.15115645159569 15.77385782391457 16.48993153366973 15.134558091217635 17.099134977215236 17.90063884373154 20.295703220932293 21.47268020272172 20.88961413276138 18.425581196988794 15.680709124253632 16.783280682463282 18.756870890185123 18.070368374317788 17.341693894673025 18.61172096700237 20.973951891070556 19.310277682252064 15.355219053595194 14.0846815603257 15.664757125796712 17.159375575350726 17.16072817721221 17.688645378516462 18.15225013009666 17.088973879121063 17.116371636088143 16.912445225038486 18.675116120831937 17.427922688125363 14.513821513525631 13.706231664689188 15.987777539297948 17.42984143656597 18.70497848985809 17.919470482066725 16.46031151818923 16.8412925915059 15.28709555957366 13.220064570080986 14.165347929661165 14.736408455238843 18.015587370375382 18.225747088995092 17.34203987243267 18.044123556661965 17.022971280561777 16.249731393063968 18.575199569030573 17.905353105794305 19.135249302084397 17.23745174473726 14.739729156998072 15.725743546547774 19.783247538760175 21.413095202257697 20.3577670921082 17.782951239311046 17.52951670155704 16.260836109730157 15.234275436125435 16.303109074676907 17.48848873420965 16.887317312216243 18.52400361784005 18.180760224610793 16.48549977657834 17.34728466707459 15.80720309082007 16.2778873307921 16.12246196628125 15.73932287588951 16.7556555619173 17.602338308193247 19.24706669048542 19.959100547197046 17.646617707524467 16.707599806134922 17.462700316430087 20.16056495293592 19.317570745428476 18.566537898799016 18.45695956458835 15.915980653926082 17.348126515197436 16.285258522392635 16.07610761485085 16.25676110149632 18.16553468085964 15.863146549554228 13.880687990916806 15.32265474913666 17.31335674190225 20.423552716519627 20.640541381388367 20.911423763567612 18.753047447877094 19.772873229012525 20.50301827917495 17.9738292907069 16.1910853334288 14.268457106880739 13.336972904358463 14.71657384873165 15.475667132153117 16.247353608491125 17.593244197409756 17.847520502375577 17.496334782101293 18.92173490773373 17.49681382765226 15.93595238362525 16.06795953066055 19.113747530174123 21.365348135457474 20.25831177244077 16.052208488034566 12.91816073819593 13.268122454081304 15.948372556047635 19.001643619161634 18.460103261719127 16.56628269045731 15.284433884920283 17.391795270340236 17.40963244165039 18.3782159748476 18.086425003890174 19.079836293728594 18.457706119062834 15.423755706732035 16.64311719537628 15.178813572478388 14.97734145134445 18.18500616641901 20.00715673511908 15.772683316536845 14.861259899787415 16.09788988005396 16.018858623082345 17.462424652155377 18.87521050870725 18.47971428746797 18.959016726630917 19.696431882997803 19.95347397368362 20.703045919548202 21.796315032332753 21.80438073893832 20.694749186986083 20.42340152772065 20.528527785150118 19.96692065738842 19.0245411271066 19.624704642782103 19.875100052022322 17.316457676152222 16.510246801139296 17.099036106674653 17.552083455932326 15.783817457563316 14.292174790842374 16.169146953720997 21.135952836803504 22.926533632362254 21.582824261368387 21.32223189667745 21.194241157849103 21.7696202277746 20.800207867038424 18.63486980529156 18.55627550278099 17.781719825620296 18.51642577391007 18.41887095947067 19.508712598123545 20.046577323088332 20.252786793353774 19.675500615078892 17.4178301843414 14.586347247203502 13.571537493011494 14.13714256799096 16.325843319368516 16.997910232468914 17.27588724711701 16.915617473625826 17.94497347341995 18.53802238460705 17.68766760739965 17.67229252724912 18.901592102732785 16.40984184292423 14.361908959642898 15.392208833331003 17.407490986628474 17.930752941894426 18.935669629285922 18.025597521849754 16.262516356014086 14.425931995471311 16.970019876886766 18.275692712449626 17.70559567752769 20.444705923638626 20.983656582581933 21.767728300616792 21.831311252876738 21.257046953782822 17.34348661649361 15.481146769041203 17.306388219866236 18.72004692622894 18.50843089583839 19.6966159255424 20.905562008670422 20.76761559635783 18.613338450860955 15.147031238380695 14.060845876344537 14.94885487698552 15.950571057657719 16.61360915930191 17.893021736847174 17.49277881759175 16.261806068357348 16.67386820578275 17.11309809562959 17.907076564468902 16.510624314690993 14.23946935654585 13.872089733198473 15.647419978061667 16.77233848799493 17.266337052081965 16.34344346286901 17.26706352978409 18.45359118410285 17.484553374697438 15.357407667842468 16.159895342611325 16.953912988059187 19.311588265337015 20.129764611254156 19.905353096390737 18.954526365232184 16.704141299806558 16.523841865900465 17.78310313778682 17.39938817954874 19.42286913417221 19.437398716204545 17.631312802975707 16.49646556153055 18.31738291812202 20.213255091833872 18.41630280094858 15.478570660270016 15.537714961958413 14.791669961076634 13.770022336849536 15.069277484285188 16.338528176354643 17.197520345522893 17.209797579613973 14.812624341202135 14.445237287310514 16.933911348301084 17.50946859605921 16.87321264484521 15.409269558872257 15.515173899851488 16.404778979787373 16.3975609696989 17.295984488468875 18.965578984882793 16.328273765575947 15.220285457189817 16.70216262865046 19.723828841982243 20.146344192024785 18.868627844795295 17.199695944606272 15.634166820640877 16.50529290337163 15.27089136100022 17.07372791525142 17.09964402587778 19.217610209344127 18.36945452265699 16.228764696982367 16.186917244367972 15.10656998428643 17.143841006606515 17.971718820870468 19.222017699893744 18.493931602823647 21.133356914825914 22.036504096828086 18.016933636617587 17.247924055285832 16.38197842700904 14.440491563145356 16.707590341118024 19.362876243028982 19.50969216542972 16.757452742283718 15.624620336914035 15.749284241829052 16.24198559976073 15.684965130256176 15.718882491674663 15.55114955013086 19.487802604293044 20.275578730864982 18.648000410679998 17.01943865099512 14.164745670131163 13.851583381282113 16.508948102710246 17.17648996554395 17.334388669295706 15.385763528899162 16.442755089616586 18.716307367821717 18.346447871637388 18.12331728633897 18.302768040810665 18.186969762904273 16.36961332989012 17.25309312973626 19.583341065639775 19.57158881037108 19.14284772229936 20.560998777990825 20.826185089761278 16.52420343245877 16.025288732176854 15.834936178883744 14.12610346010467 15.585175951923457 17.180103523543348 16.62886282037154 18.76377757002808 19.21510815005473 18.09058014577616 18.10055380043761 19.597270443638376 20.90690481491814 20.232606008788736 19.052079446253785 19.918302647859104 19.635281457096625 20.67323724764829 20.717169570442863 18.03722736938119 16.063830662711702 15.958484935166183 18.40362522223839 18.46629099089289 16.62921625665261 14.94332357071448 17.734179762348692 20.06092327272297 20.70811870071953 20.0277262445084 21.7918625323964 21.925320758223023 21.664796751147975 19.051524788253523 17.283632780290866 18.325890889227754 19.604504321629573 18.34738353163193 16.877832638489174 17.506331457097644 17.58740114406749 20.644043258091127 20.58563974362587 15.907060398659928 13.40464307896348 14.54590660929822 17.15771609970146 17.693308529110926 16.55725454931343 17.698842632019065 18.775768937067273 18.291340241012225 17.255208482308532 16.928096966057222 15.929909695345087 16.64049852066058 15.228928028814275 15.969750442895906 17.328284825688616 17.89270695416372 18.889533836328194 19.480929492390537 17.825318661044257 14.990907488477877 14.169489323559105 16.754890423016445 18.69096753378799 19.64165391345207 21.107857072314857 20.537546693913686 20.097957550694357 19.61609923936416 19.33785863305854 16.106304858898774 16.376931009074568 19.386366517581173 19.927438343539247 19.624988198001972 21.51681416211044 20.74126780816341 18.790214224098722 15.980258465577055 15.421120673305722 17.535378422045564 17.39057437601197 17.54305146757075 17.655329720388547 19.18262050209899 18.395979976855156 17.52030702674242 17.820265394718298 18.766168364182718 18.74791565781154 17.26271297710336 16.303461369845085 15.704959007913024 16.922453278601626 16.377901786787838 16.962791151891512 14.895698974683055 14.852501856209107 17.522126179064397 19.529212816382252 19.31304755955933 19.54387357840453 18.979927112377037 18.69739590776483 18.159806678237718 19.22261490077167 19.037511637515397 17.884898467616274 16.00897798757909 16.49302978291478 18.46702843078541 18.511595041195417 16.84063796614634 14.394890200019637 14.522060565920091 18.576732873887586 19.90749568067196 18.06570002692052 15.440046935755824 15.169321906447266 15.311804065937737 15.633515684010307 17.585453956752033 17.19548320204069 18.85279319383628 18.401431873523187 15.50067351208845 15.285887611938007 16.09857976494417 18.48226128784183 17.209485793836997 15.671787417773741 16.447307146851657 16.343824020156166 17.443626179633444 17.68368985873246 18.759017124657806 16.672169682859206 16.644232975210826 18.943706183938836 19.355509957122717 20.048417899648957 20.38970831970235 19.04289332445792 17.191957192581548 16.55909467528088 14.43045718098678 16.47883853076351 17.669014309597326 17.623572065516868 17.494682886152805 17.53517992794739 18.27080620729657 16.60672219164257 17.5462869204559 16.962172513513003 17.332152636886374 16.9990797935228 20.033581240996977 22.36193466237956 20.081044180198074 19.904430833812487 18.701930421278824 15.58469815675328 17.0054144049623 19.591653777562396 19.11970707503622 15.11437067425743 14.631311231536229 15.43043938557492 16.17762177940425 16.610928961275352 15.966701327590137 16.298154522854833 20.24429496436392 19.589128784041325 18.86328071953231 17.994425289499198 16.57759460176737 15.439901793166513 17.20757440838139 18.09433373615451 19.612936572190712 16.84943433875621 16.43101134933749 16.945034203491645 16.107608371235777 16.19421020552472 17.901705166678685 16.003081335615118 15.041917378509615 16.403275402909962 19.420042672939445 20.77009100093283 19.956533880658412 19.951550050974205 19.33922931116003 15.241354568948104 15.0993668460641 15.64153322773675 13.465787981819656 15.422117279616174 17.294366219511087 16.58082521817173 18.476936351683275 18.814467095380255 17.091675649178242 15.573337818464438 17.520851178546003 18.88155360428376 18.105062125393733 16.026768720417294 17.436523995457595 19.73088217221786 21.78067873214212 22.60215929373376 19.622786118693927 17.860705895849918 17.232074987689003 18.690255700152797 16.741269333997646 16.035862860506825 15.857246431015955 18.235586377142507 20.208721734534393 20.834003516258633 20.981410803369847 20.69984898544108 19.27571859543549 18.860155010537017 16.47343082143905 14.816819729041498 17.299432622821328 19.840282560499237 16.963023384935003 16.987522840706383 17.472739217423037 17.48113517009235 19.19013315860268 19.459644263618035 16.20505497857121 13.51151644574196 15.19443860703459 17.019557955894523 17.74458369493966 16.694161949986857 17.089119948685248 16.63055018823549 16.14442086806878 17.28886391784429 17.06550416135822 13.846503813900808 13.432300317437281 13.841078191494468 15.568449873802207 17.056892084957706 15.667882111067204 15.741192146319941 16.79996421676475 16.99249370369754 14.988613594302405 15.331781249904022 16.870757342959074 19.706560697152277 19.514797736488944 19.448020344335813 18.311610105671377 18.566688654347594 17.48196648207497 17.55097940805191 16.39561038742263 17.317191276492878 18.70814530840606 18.072918152575816 18.184993240837123 19.755008202053762 16.53193915726905 14.921816891641297 15.589198757872149 17.692765752912955 18.243511293644023 16.438299103692543 16.614475104270053 16.97456805011465 18.86509403834893 17.869430532937898 16.08250875256228 16.440827879841482 17.149292991325975 16.83912024889508 15.645457617500869 15.026591155196561 17.599157776539954 18.732214997649887 17.029107758817496 16.564736565492428 13.55169353296635 12.65475738454337 14.102308595960764 16.89156854019943 18.899692191911384 18.363115629589867 17.85594560321263 17.827275338620144 18.083830649010526 20.96179849387457 21.062556123924622 19.81931254968658 18.35377459047641 18.39347790558171 19.93951595836477 19.88092470914818 17.868577812098103 14.189590586254274 12.887104952358317 16.417591125113535 17.626023440035524 17.30061620364617 17.368856856449682 16.54245080939462 16.637600236225374 18.05438528776467 18.41119656256745 16.45182693988455 17.711103752373695 17.857379959325318 17.910348412418873 18.178705175451498 16.53773522939263 17.556977475212648 16.055406890441517 16.553575182479452 16.36181096709259 15.689978378619937 16.307035879415228 18.493568425178772 18.845140964460015 17.70667226313368 17.531694910303226 19.32114996815687 18.432529361747903 16.736948419705367 17.69464792864782 16.48202451856908 16.47234311560964 17.195426240775358 15.202726316610429 15.928903817521507 17.281304136275942 16.639115461565886 17.159484619024287 17.77364928805179 17.363407945209467 16.016667198873908 16.910366526699562 16.815837667864493 17.968656221318582 18.46138019421485 20.4135069089243 21.199031069555712 19.286332541339135 20.11025064931239 18.28067791320613 16.27560638947159 17.313354952458774 19.461168236696636 19.095354169521215 16.212385147472194 16.73650347916128 16.96030600253585 15.833026366021157 17.343547554814734 15.498965146052111 14.713820876371498 17.395677931914765 15.812838015965186 16.989313848196268 17.68923823339348 16.81929336281426 16.307222762050895 17.84812659434001 18.576700126229465 21.129858504982078 19.562174310854243 16.449752556742027 15.254728110215504 12.839620316654909 13.696490469951607 16.884545216624485 15.39194