# vtk DataFile Version 2.0
Ocean Simulation Step
ASCII
DATASET STRUCTURED_POINTS
DIMENSIONS 200 200 1
ORIGIN 0 0 0
SPACING 1 1 1
POINT_DATA 40000
SCALARS Temperature float 1
LOOKUP_TABLE default
13.725974907904202 12.91028742355126 14.154469101739458 15.676943824250607 15.252528473254785 15.125839999434335 14.309186161873564 15.824578367201479 18.34339982854093 17.030520583766346 15.339063240084691 14.951394629514555 16.57806773286812 18.11877216694254 18.265611268584088 19.374813761898032 18.79378389666178 18.728383754778942 20.054186384224277 20.989944092793987 19.17704414490197 16.055135410722354 13.535265306919424 13.098649821428792 13.782552190809568 14.305740195429292 14.73372185758733 14.583086351869882 17.406346042208906 20.053591411339543 19.675432371310283 18.308695941987192 19.230342196636354 20.562415116234753 20.35603412152914 18.249017995770735 17.05696784895782 19.241337856128535 18.560257372276258 19.49394171002725 19.835657129616806 20.58107011937641 20.057106684490208 18.84827628227454 20.077956994023257 20.775064776943882 18.335325980856712 16.192521851906893 16.190930734645168 15.763644964558488 17.075991456859814 17.791508016537502 18.30060160549994 19.62300009329124 20.29959835723709 20.911612254381833 18.26329076010752 15.410165603905336 14.837109807749915 13.873784991564753 15.490920799924995 19.90183085883798 21.42281457248328 20.97024445098649 19.07413128368523 18.06682835933336 19.389944213603602 17.65216321306259 15.463325164931572 14.397637534178646 15.715714533274028 18.969517508146296 20.47057331522029 20.354443609358192 19.265727380516037 18.323738041924063 18.654246666831103 18.43847697387721 17.519900452894632 18.16847447884751 16.81154513670337 15.230137133081424 15.684979350564788 17.3291819415357 17.003328200102235 14.003532599192933 13.206757393293177 15.995288890350276 16.545085343857725 16.814867452548768 17.379313163820996 15.703713471452087 13.646111848095348 12.895956354567193 13.955908049163599 13.45923298225317 13.22429107192717 13.034930595257514 15.154244100830724 15.923278345519078 16.49798757060062 18.260053029203604 17.261132239670403 15.724637954179272 13.689338099121546 13.817844654892667 16.188279697243026 18.202718374692065 18.382676573626995 19.25164576566715 19.1033815147178 16.430444122841664 17.471244285241937 16.960175568622258 15.33210088934737 16.918345957620602 15.391974491826362 15.007972299553524 15.643536673978305 15.772446657484245 15.552994021482501 14.061013136557621 14.400506833819435 16.799151834698495 18.587071171431514 17.12175480832898 16.928940306305634 16.084364995450237 17.19752366138022 18.72282510189453 18.454842677069568 17.070108496387082 16.594754608900978 18.14543156129753 20.875955190448707 20.52796180303717 19.38770510338628 18.49553142335181 16.921259960220283 15.466481712420157 14.87681349022503 16.322370344417934 19.005219325282674 19.53440957078521 17.68210697399786 16.08952102184796 18.637587727722615 19.734561299476045 19.01357834930798 18.24088381909797 20.15554334145387 20.848586025337397 20.743693193340203 17.367370690079905 16.02405905654846 16.925806052356595 17.944453220558103 17.44361691891136 16.373977536794552 15.489143251437184 15.820405343030757 16.399276151231728 16.29215074578435 18.58491146392104 19.938974791137944 18.659906345583753 16.471720738550612 15.191223180240351 16.46426375034634 17.39521470457088 19.83883928707351 19.836449805028227 19.21516377300632 19.746930188070323 20.52584193453958 19.032723433137992 18.56927112659539 17.512343404423888 17.009875377170843 19.39159759090115 20.283201913297553 20.82236211484047 17.564105272624836 15.69645928331131 15.668766091471955 17.497366096383793 18.092659148761292 19.06437780086868 17.930222883126277 16.66385158739506 14.794901589546454 14.31848819591327 16.28457464571787 16.43890785737105 17.076976426560684 16.463446141011612 17.80824049359868 18.34920627553356 18.65046668486575 17.00714499118589 14.429576009462885 13.578075474744576 15.892554548227226 18.051999284263605 17.88831965925822 17.86348878056709 16.178945175833075 17.007661370116153 18.59146372003422 16.674985269918977 15.446614156680559 15.506140712825768 16.74011259195094 16.916893783398443 16.58681736681213 19.278373384637884 19.393123039802585 18.89967123688723 19.794720479177773 21.944290724139698 20.844937272453272 16.887812850072653 14.18167217072932 13.211011911399229 13.840131012483301 15.472293234647942 15.387074478537677 14.529895522499016 14.98269420340652 16.301632110651855 17.1689144030545 17.552805903151995 20.14736997279303 22.38498582048517 22.282994398384776 20.70274287849023 18.142088954145944 20.02796466954557 20.161033296243364 20.765607662823953 20.002884093458142 20.50306691365963 21.51376743648951 21.14132490636733 20.701619332603723 19.47901276152977 16.455549074810147 15.674814461437224 17.011214434003524 17.188689115132547 18.28752581356518 19.81217775700369 20.516814510163577 21.067851186614682 19.199745164166856 19.103644787286534 17.867093516351314 16.35518124474483 15.5831540635812 15.025977334580082 16.646644879093426 19.709525886562215 20.138064057576855 18.169993416698034 16.275745775473954 15.904797576954152 17.10723217901723 15.60830247795694 14.727655024732632 14.550974516634144 16.62542246284785 20.300721527921212 20.620711073353906 20.87120328761902 21.066269393978924 21.083312914707133 21.527625039259682 20.919804796629492 20.58272773453696 20.425408664482894 19.368456599860103 17.411153472517505 17.00903748534198 16.591077231754177 15.39135733367055 13.384486454176388 13.656960466455226 15.593650521716059 15.840412047206408 16.841245305002413 17.237752663897936 17.048388408830885 15.058288617251572 14.449103307205778 16.729912559774203 16.764042517939288 16.267962994731615 14.1167956793196 14.872527868456714 14.170031784219113 15.45095940216536 17.843565640413512 16.949467861833767 15.702650240168579 14.299798476367505 14.861957861302287 17.00600383707013 20.35396762096735 20.362209868292126 19.95821931629218 20.53466054311793 18.80342379816885 18.54313935210952 16.40448215518989 14.344972834115378 16.147163328996147 15.687242777825757 15.570173802041339 15.92894032297013 16.604318427488373 15.95829056904309 13.750666980722194 12.302151742433457 14.412137203185594 18.740083552392075 19.612339743857888 18.880022705868264 16.120441865061448 15.780307986612529 17.24609000779466 16.29530783436643 15.494608664453182 15.54643132392294 16.092371189336454 18.823355143241468 19.230393420864825 19.0546489407919 16.485567887862597 14.03289044365803 13.37967987831113 15.515435158207083 18.21753813122691 20.534311125043462 19.774756407560535 17.36093498816167 17.31817436198141 20.250584659117578 19.97402161518554 18.189252938007133 17.848460211880955 19.464967720584 19.760270993062445 19.551816337349045 16.126442891603983 15.243806872208644 16.367818736169337 18.288556158198713 19.17844661733303 18.27003933051237 18.25766022408727 18.405678884682004 17.18035065697823 16.257539636910884 17.182458917027645 18.686363981242067 18.53790740498589 16.322703928863977 14.32581594579556 15.245506216193714 17.290100510061848 20.094158779941 19.022843395861184 18.042910163165192 18.833989994136292 18.35007178248837 16.263038719845085 17.25574821596615 18.46435833281674 18.798814146986473 19.352918336417435 19.430760747299097 20.064949182447847 19.1920500191315 17.84189057018665 16.91613161408427 16.23955652382783 14.675934991844873 15.620190580074258 15.980330652501616 16.163989615215854 15.508560732502266 15.351309890702863 17.079725090803706 16.731259870737475 17.207145918040787 16.78658081005497 16.607182194771614 15.991573279082267 17.474262452577317 16.83663283535195 16.99284053473514 15.745540943280082 17.029872210127774 18.513048752424453 18.386979678770714 18.121028254345735 15.783615988686652 17.32940581492212 19.351558815049763 17.949747453192163 16.783869310569724 17.11788903977807 17.226313120332378 15.552928082490244 14.586639093696252 16.314403704678035 16.704503652468464 17.694854521105682 19.20229169760533 20.968834350579865 20.6209202459856 17.589508620256424 14.811067853132721 13.43176238893597 14.855931223377826 16.824187641367462 16.067062050083987 15.152198200970771 13.780538738731986 13.854517489918367 15.380535246554494 16.263782707765827 18.71054551843772 22.10022739998149 23.30896616935722 22.556039085078815 19.781097133674024 20.757578750775927 21.58668425269382 21.171294541471102 19.92909919505211 18.755785187337985 19.15729738934532 19.665579340199837 19.30979264348249 18.60035053411676 16.321335348160567 15.049104372960096 16.739807240200754 17.863686535213965 17.558517673781267 18.62833799719544 19.188484714536962 19.781782755034023 17.94156685716446 17.854418880360647 17.35534559353143 16.39539419242316 15.170650059137179 14.142917497296096 14.488465073735222 15.875070687675445 16.899651802619076 15.351994208707366 15.422753400711013 17.103450578558817 18.61864517611405 16.873838570720537 16.2736985909288 15.783508164404013 16.023886472649867 19.297790700004597 18.704755466386995 17.987189448499922 19.121104797682104 20.313389707011687 21.419106205191508 21.326035226444347 20.739825539787823 19.833199608935782 19.241789896942173 18.305208756297393 18.437097627329408 16.626556765827054 14.890925013866338 14.552125900392424 16.260715406340733 16.982677846945105 17.170624730130637 18.102322353155763 17.383429474066734 18.195662581603603 17.473326437231 16.758522935937513 17.850380200734506 16.732752612638137 16.482595014775193 14.786086036245566 15.49720382146223 14.033379828407606 14.607751273145453 15.70680588447857 15.762697877721344 16.706121952958352 17.156515875891497 18.136162687960326 19.255550694259753 21.526948943487742 20.224350750016868 18.382162904267606 19.890102443528377 19.553427929882208 19.311869454143398 17.360967883695746 14.567498235140746 15.773851335344903 17.885926273757136 17.736569880108735 18.05076774935805 18.29980573866942 17.145005850013998 15.40935151322727 12.772842428056752 14.126191403991683 18.297626666018072 20.618610667933176 19.711601940776166 17.841683723497294 17.160015608518904 17.41627118797908 16.840354608404088 16.437461009629807 16.405647185103806 15.215181961659143 16.821908396710135 17.35772518167939 17.30980702651419 15.144515135287566 13.003902384322474 13.959503059831963 18.123044985229733 19.75149817896309 20.126530708732993 18.421934182580053 17.67870734703629 19.46583637928538 20.636395945206925 19.3892942409559 18.472886632709077 18.46388577959802 17.18719181567919 17.073059690904184 17.482921942828156 15.51637343352266 15.978240573604655 15.847399934194618 17.315553278129354 19.93394863872381 19.96966352694638 18.52793781181431 18.43836528408514 18.627473412942845 19.307138484676052 19.38736347234024 19.632228334402267 19.424113245377544 18.105945307499702 15.585625423690074 16.74806677800772 19.096295571069735 20.215925912856108 17.36551898470775 15.407798590277277 15.450449971470857 13.689052254179977 12.43202094329776 14.31938174510659 16.378416656294487 16.811779733194935 16.622465055986392 15.35963489026473 15.96028533617082 17.532159218218887 18.2888707925351 18.72097624747708 17.95001684913514 14.595304749189172 15.052905476783254 16.267503922907803 18.128196794256024 18.704250199607817 18.103834071548786 18.059800973913546 15.9810096644223 15.684746604006651 15.866193484259353 15.664060355164489 15.12343818996609 16.941505017840317 17.063237600081358 17.19988371989913 15.850009545995006 16.70016314777494 17.95135720103412 18.60927517298274 17.0451023955679 13.671938608749324 14.750671252471625 17.673823668198487 17.710163664786457 18.63155144329621 19.342572847663277 18.833849087399514 16.57820745541845 15.016409620726279 15.114825971402484 15.791475779078516 17.139967332685057 18.80307774373175 19.620986296236264 19.65098762221136 17.917239391980168 15.206259547388848 14.129158140071166 16.14217416480697 19.010037384740883 17.54036572727823 15.441926685781377 14.086778554282626 14.365639155624454 16.318534298731787 16.05521126214702 18.030919058842674 21.956858974956376 23.340174935151484 23.01981053513259 21.159565999114264 21.603436706556778 21.275377903203353 19.677707893989865 18.942494704273898 18.062712275761584 16.99130685405237 17.725505236621256 18.293019440272978 18.720165762990952 17.81001187519649 15.915034191981812 16.757745111732863 19.49924258631654 19.030765294710694 18.622538912983668 17.3326220652795 16.879259288638938 15.65966638382153 16.504958422065297 16.57826882729208 16.87498009249246 15.644203397189486 13.559319321054614 13.253866292538872 14.384692258266211 15.575734662372655 13.991011063189134 14.399918420533277 16.251202874457622 18.20304454379678 17.706006720913376 16.381973425386267 15.918311695047949 15.32723135373066 17.998946458453208 17.55530141828496 16.360727940046143 17.93901487100776 18.63715033588933 19.37931859218997 19.448129912850753 18.470447066123217 17.435892588063414 16.572435475682425 17.29182767436459 18.372329849980247 17.197370529186585 16.274956013312273 17.510962411797692 19.527399950668347 18.16381764246822 16.406802229752262 16.3769704056082 16.13905306144584 17.703563797638914 18.515598928056725 18.33891356775582 17.23914404560548 15.325462875553228 15.261215445921259 15.54183564044689 17.37597699383586 16.24593077810505 15.495607066935968 14.82636842584169 14.928866241322128 16.22646085649236 18.083281567557137 18.46977428163834 18.66064035146845 20.04107000563915 18.236941315321978 15.739436778338446 17.01711714541138 16.290288459431025 17.121193662670933 17.302749864365122 15.949963733526861 16.850121899256337 17.86982503670088 16.749740166293698 18.048427029852945 18.208354079159328 17.82910158505882 15.71155477662196 13.731702248105696 15.977985777342777 19.924818672972812 21.859183862868704 21.077450203180252 19.285196648099674 18.690614182750505 18.253554219823517 18.264283437963364 18.725984223743197 18.60565092761372 17.09682125683315 18.444451810879293 18.834330593404122 17.50972426623793 16.937101774215098 14.828018353839308 15.821248711395395 18.442703682150217 18.38620225774165 18.08563544560472 17.368705564768497 18.3545452863118 20.03988778087042 18.986490511167414 18.09868964267206 18.04717828632984 19.1049810909949 16.988819325848464 16.679360426601146 17.789198600841637 16.267649647985607 17.099013684316326 16.636157025587544 17.54711420538068 19.44850980486028 19.570156212397535 16.508504428949035 15.334583321039755 16.520725603711757 19.40678051978969 20.987187504158825 20.68482033254384 20.83930174955634 19.18688209184797 17.61952186873357 18.512499020548486 19.619629041714198 19.086089754133912 15.705895628754464 14.257077000680551 14.289686960382316 13.049592351336061 13.095200588750751 15.73099994813969 17.755237676677016 17.379431947872945 17.579391876533467 15.439909081104636 15.24227400568265 16.83579782607032 18.624734255207848 20.390120355103626 19.33511002056859 14.86146103761689 13.348453161414023 14.14331397511723 17.0234432429001 20.07040702808449 20.373389617713578 18.957114354357625 15.710824718960957 15.488500100653466 16.3791837256359 17.181578519982846 16.712087924298988 17.766199192336224 17.797612066455574 15.987776464178653 15.067544677134666 14.852524146136206 15.619619597610612 18.536135827087197 18.4331525460523 14.226716357384028 13.545749019504619 15.518464652428554 16.075157535840116 17.287979767766675 17.98632057424726 17.970200830511708 17.9730825318053 17.995828079281704 17.756855504385804 18.28149683850688 19.773704862610636 19.909048365017046 18.459077420079563 17.852771385876927 17.41672841912466 16.913182545575793 16.656583649861158 17.98684073883322 19.70813343735393 16.893188158393595 14.864279602377763 14.437736058331833 15.656458819148213 16.46524943077339 14.802924133107279 16.08920208510784 21.044912046340297 23.3097855763402 22.809061211385767 21.65006437208308 22.345698623705132 22.600971321645588 21.453776547537878 20.062345322721892 18.614063660507608 16.73864320040759 16.625260190415506 16.679613337661962 17.65420797137094 18.73155518710668 17.91211115391438 18.365553633004787 19.66750292786884 17.734075950875113 15.732496833172032 14.809053325605333 15.999234083338804 15.333591612404383 15.944968759490486 16.3242354423449 17.385971469259133 17.698914010160067 16.002838222279664 16.103562441170904 17.269897578629415 16.90222637725568 14.903625105278076 15.255230915462736 16.114872033777996 16.909661953305886 17.8265199162317 16.428623636942007 14.838451458825466 13.629446937380337 15.889186256384763 16.55044965519524 15.580038748176259 17.302190945800152 18.23198834486473 20.244158109650847 21.236911954291887 20.61143293391042 18.27416763822475 15.961354549732793 16.903854500232054 18.572197223704624 18.04352966794629 17.543028808720955 18.745046581744067 20.624486077151158 19.04497535998736 15.577595351081792 14.420266773784672 15.649552729987706 17.034049238189485 17.25426270798374 17.742011236881865 17.95754570673854 16.978784565814948 16.95132122441799 16.94543270226556 18.36263631778504 17.193820472190236 14.702534830773848 13.984860892312044 15.846634348327415 17.285458520142672 18.446314060037672 17.821457223375077 16.759249706194012 17.041355049888406 15.5963414153008 13.711916346290117 14.476794185330482 15.135671003061052 17.848185998609722 18.210869153245717 17.496032734927862 17.92172132975583 17.08855749664086 16.477318184691157 18.31519220100419 18.00408511468211 18.87779515342458 17.227935062351882 15.05918880077913 15.984759271502616 19.56474258220052 21.1943136210409 20.193171962586355 17.883633527060343 17.428082057854816 16.321985466235358 15.487264766487437 16.409487871058566 17.3989281316162 17.048484261486774 18.319486447265746 17.947075259282347 16.58013172141361 17.15872581025218 15.960869668423602 16.253009467456994 16.233139042114498 15.98828463209443 16.80979825944884 17.55499698201442 19.00762551718586 19.712902561361556 17.733416748039808 16.820993109749754 17.572064160211074 19.851187086027355 19.20258909199647 18.4888896794349 18.203873621250338 16.15756013327947 17.13699156097797 16.30153116468101 16.260792826155114 16.631529121887947 18.074334622345532 16.07144198676737 14.331265507733209 15.493273290557973 17.392363163739205 20.088112063641013 20.468753690634056 20.657097355049643 18.95889141880212 19.690414575086024 20.262412998370635 18.144922880191857 16.45568765674572 14.558681050887532 13.619932265896903 14.782578796824993 15.546852058211678 16.259961011500664 17.355950359519234 17.67371189616456 17.476270874251394 18.49575522576011 17.233047013908216 15.975443426174118 16.273397013647244 19.047537466754505 21.022090048377542 19.913369662782948 16.091942782870763 13.244254015743518 13.514829983652753 16.068380985897925 18.752048468765047 18.439462856524127 16.711626121468015 15.584538281738139 17.21736119126026 17.4460548373102 18.213204028508454 18.077070227683524 18.829872185326323 18.16428745851613 15.697047508617326 16.5609412568413 15.506825768881306 15.486071546371114 18.27172463110407 19.589117194325016 15.912223119207681 14.968805548337274 15.960363605220861 15.99366716795867 17.324879412943012 18.59085408654386 18.381533570398307 18.891736391629493 19.524270388290372 19.7214337987768 20.396894346425466 21.45606585017637 21.544297865034057 20.54951632290361 20.17813014424685 20.22713811726633 19.724907426919142 19.06037083738813 19.55778364555015 19.595450821263 17.315260593164084 16.455310703078084 16.982028805024683 17.344867389159184 15.904592252801804 14.58386182918771 16.435770220795614 20.8688654752171 22.62177332587358 21.635469600254247 21.377515023951343 21.35389230867954 21.71958444375425 20.667982105518906 18.774033802144704 18.51203156995599 17.90119483356392 18.325779103129502 18.270614125762886 19.218079864003702 19.791770548439892 20.058319037217228 19.52805831000308 17.453364985249095 14.844979227099557 13.878044766459963 14.454681694040207 16.29746356104628 16.83572700606405 17.173281839367988 17.062021587776165 17.898945276891506 18.32457962189638 17.575299538187867 17.53045567435805 18.42713462923682 16.403031429790815 14.686459097939053 15.565524489037694 17.26242525473408 17.932543900387273 18.770312001919145 17.84423958457567 16.089775753579705 14.615862290927202 16.80781265616671 18.074701542247468 17.86681932972603 20.1375441011482 20.769846126437848 21.513685581831375 21.607403827438787 20.891465834757856 17.464615920254058 15.79736989476063 17.379681608929147 18.689579114364847 18.633951304713836 19.655262112233757 20.654856232046782 20.503992693203163 18.410187246560447 15.344126889426057 14.41318511102844 15.160444053434416 16.10535799216661 16.756296839404996 17.855837032162942 17.535244329232626 16.491754647687152 16.775822862252813 17.220273616383704 17.858662395191796 16.55634347532882 14.512155956778773 14.130026339327246 15.707549005508982 16.75034518640544 17.239289914433126 16.46136562891895 17.092260661191514 18.153845511155744 17.39921384116769 15.659194097501146 16.25593771950039 17.041551521526074 19.084623134453555 19.8164732799821 19.652104252745705 18.819512907571223 16.92567914542519 16.583494760204236 17.659661264628127 17.63725803025236 19.21169128751689 19.015257709594017 17.30028875630651 16.518298727588167 18.408517000554447 20.027207620172828 18.441968282605337 15.819237878577427 15.603034497953601 14.914429778540656 14.142796076128736 15.309997657764992 16.443715070805798 17.227426656118585 17.214408191532204 15.20301074876405 14.817631536480059 16.79545182952869 17.376851428916186 16.802665041047774 15.577645816895867 15.643543656827125 16.378990409215817 16.591482677177925 17.48356397616411 18.74620760000525 16.538235497421798 15.58315529679159 16.98641914610315 19.560062091600003 19.969666029350076 18.90738495763209 17.391487587275567 15.908699385160475 16.43624547104895 15.473598619963397 16.877515842510203 17.20335781073434 18.861691727043404 18.07792361435184 16.298558566578386 16.207655315100432 15.539005859623863 17.299557121993104 18.10020118179891 19.09050290964698 18.632563146775254 20.863894464789194 21.638781541262343 18.33946753415028 17.35057045058279 16.338588023184375 14.716419172855698 16.62685504082491 18.960400364532095 19.086739312794137 16.804994559932418 15.787375942263663 15.87132760504367 16.335356961767793 15.885201373863135 15.752785960517226 15.888572310766545 19.304637267140183 20.132444593771602 18.74113467856723 16.951266852329848 14.406555267009551 14.113401558137594 16.407162541203697 17.307544071851108 17.419893836674035 15.750331406134793 16.456207571746077 18.346526422519524 18.146144678964497 18.033722172517617 18.23015741123952 17.99949852676744 16.47156501527596 17.10371913316071 19.229072710420787 19.337732939118546 19.050658460180703 20.290654034395235 20.377485501061173 16.633542350541802 15.923954596307519 15.743291969677614 14.410387517708998 15.705319734219998 17.1584909136607 16.9038658933431 18.64923651815768 19.11219890005968 18.210352196553366 18.202864500206065 19.581669365154593 20.701443446579265 20.090920957193674 19.071023637025313 19.728093746947717 19.72248482907352 20.568413013004516 20.588359142926052 18.29481920394463 16.390156860261975 16.238109713063377 18.181352446478208 18.171770944856576 16.554924874882886 15.248101538204834 17.65510585627101 20.018670139675177 20.76562010073787 20.328226809168147 21.59207930033977 21.68037831684895 21.33805487462575 19.045768391236408 17.403381091197485 18.286759606984635 19.3380926816639 18.26049595028142 17.11093341434897 17.608336379971806 17.914539637532016 20.32791719903607 20.158599873769067 16.154087620762215 13.73810183340007 14.624959900064596 16.831416178306533 17.494030268189064 16.72491792607413 17.62087371692498 18.427058578106177 18.098133299671797 17.364777462813976 16.9389731021466 16.015601193276723 16.45178294746641 15.349375430314723 15.890300628412351 17.135140325292827 17.74087581485664 18.60143954860164 19.124167845634286 17.6978259941754 15.1996893077934 14.48289225202142 16.74336742804241 18.652731872545306 19.543037279542364 20.82243111910428 20.42595634867912 20.092297426541716 19.627772530010347 19.164089059781144 16.4301051412339 16.55937907991206 19.059475159483533 19.679367355919066 19.59151265457529 21.107611922967298 20.4003260979869 18.618672205771187 16.25891767980899 15.709416069004225 17.22664337478042 17.191444893192937 17.380731732131927 17.632160243969178 18.926334381650225 18.290938519321443 17.432492588755924 17.69882131304521 18.496188395794988 18.47739581184867 17.143804865994543 16.135909012525154 15.81880438127873 16.849593898931786 16.51041279676661 16.798449827940914 15.03927019518371 15.034983669973702 17.318168399806 19.086257089218254 19.04917985326943 19.197904239191523 18.794597838254553 18.666146619105312 18.379417940150027 19.29046843982175 19.090234682805704 17.898656782849773 16.344899028225083 16.788060968926025 18.379964683697146 18.536210066995174 17.016140022701567 14.756233136624738 14.800071872285693 18.252060603466752 19.56957177477617 17.9961475311392 15.720174418486636 15.316490810014104 15.386056011471359 15.767822659100384 17.338185833873965 17.218039208879336 18.543642376010425 18.139420464901242 15.778088915203723 15.491041329440094 16.268981650977224 18.126919293234696 17.09637479968085 15.847680766822505 16.334858313204037 16.371997284787707 17.263725587597307 17.74991368353624 18.579294819159188 16.849456649299572 16.76783095207213 18.713900848170194 19.31772662509562 19.818155598006996 20.00656025027327 18.73426226167966 17.123287694523935 16.504702939536028 14.803193057602396 16.435642123836757 17.533295490806783 17.651687237477347 17.53670998676542 17.504599283570126 17.93296194651853 16.640370983664596 17.393138881906438 17.0779425286869 17.450431787178072 17.400624213588994 20.069451195269764 21.964285427186493 20.03032170819909 19.67281067511002 18.4085508698218 15.84550119744278 17.07802095502234 19.35413787050399 18.905230620284726 15.510663452004355 14.917516816142555 15.54475449964932 16.149089280255865 16.530431713294576 15.986508985208554 16.379687011576767 19.71789432819761 19.379435045789844 18.721454292832924 17.868658210906673 16.467008205377578 15.578203291623506 17.14465502569703 18.10268903251522 19.298939803659998 17.070963959431285 16.501122574814065 16.860771268231606 16.10737071287623 16.259196854605655 17.64001829453807 16.15888885789214 15.274782465525277 16.586459208219157 19.349534704321353 20.564282244615963 19.99083714474565 19.938774140492058 19.172156430561405 15.634351063262953 15.295840326800205 15.555149032573299 13.84129556598296 15.481783583983646 17.15802611621787 16.68083882740132 18.217961789256375 18.627423854285045 17.171667510849478 15.947323525551306 17.565721815317936 18.868721662576874 18.19777207474004 16.42105119266472 17.5348732395313 19.5386305666011 21.445205951081494 22.202997056810986 19.737842721617593 18.03753021858419 17.452902153818233 18.44416100686625 16.814927846632237 16.098016371386095 16.08954138119736 18.242172183377683 20.02664394970498 20.671845955052458 20.81904847610033 20.531049596637455 19.276364231500505 18.712448618789878 16.587834623651535 15.210927102678069 17.346467213680363 19.491101293884796 17.245600949859035 17.142957454900813 17.66794797229639 17.817410415552928 19.198548085664005 19.207330262880888 16.251566318417694 13.856466580362122 15.171286442718582 16.784580243207664 17.462201342030106 16.791349752940228 17.035402234863103 16.64939149972667 16.28153051412988 17.126483150654845 16.864004875353267 14.18844512621382 13.768419646139698 14.107027200842078 15.555250628444432 16.887295662410537 15.938761544177467 15.971653631864601 16.797216228354422 16.808666485105505 15.146400833965286 15.421367983777875 17.034947239935512 19.532321780287766 19.573194161952053 19.46530340088306 18.49311986495075 18.521123114913582 17.670796160119515 17.63065483613515 16.6585853297687 17.34475374723935 18.629278055877183 18.267291913277845 18.329916468246445 19.44471709539105 16.785342288699955 15.211969279550907 15.662900775825758 17.465013620319304 17.918009307664825 16.47202535679344 16.573731462966585 17.102644560661275 18.594740440792403 17.804233283232442 16.299700422533775 16.54352843574628 17.192167712954657 16.976526234234136 15.895937485819564 15.360804276514306 17.50475154461587 18.536027945592885 17.19927286316274 16.52874299985193 13.80886877744848 12.923997817967564 14.381002699803993 16.95757861286786 18.68945359498583 18.26933774340545 17.90344199727691 18.03297107031141 18.44059497557245 20.76415131853206 20.84581044556283 19.614119126081814 18.39255822774191 18.421654074882404 19.63376749180064 19.64076032292671 17.845624948370666 14.527206910412515 13.281489995424064 16.206303173104406 17.586260369134337 17.489820179937205 17.358292627508828 16.593536144306057 16.686820100493378 17.81430342514781 18.125555345894792 16.72833106677148 17.76627981997251 17.81407892132839 17.706532045919012 17.83110510660356 16.609896797542127 17.27887522501285 16.15613736418996 16.402954518197674 16.207697581099726 15.689217221293566 16.31729690012332 18.26119643335499 18.76272629387296 17.78122239062365 17.65078776968062 19.058438803147116 18.348709876487778 17.016612184556564 17.631973339751706 16.60507578293343 16.469689785792887 17.047378263507632 15.546784455929256 16.151478420833826 17.215888986228244 16.930729323153837 17.37801983547962 17.74616518407414 17.244632835918534 16.13989466090292 16.814647517799923 16.821574417006406 17.762619609047984 18.455987294562004 20.253619913057012 20.95655319816034 19.43823982641563 19.819445068609625 18.155625825456635 16.460493006209134 17.346740348719432 19.133439732329496 18.745780796528617 16.330720652161453 16.547656675780356 16.689153853786774 15.984687759197772 17.101294449134514 15.596042830753921 14.944373832273563 17.142260264461523 16.156837735614666 17.10575881816799 17.60192456685895 16.80180411582887 16.316844668821293 17.65813279539747 18.67947991300446 20.787177485364705 19.388329542514835 16.650315459143446 15.381324241881602 13.276171039748855 14.041696923297621 16.751271488918476 15.6120221