# vtk DataFile Version 2.0
Ocean Simulation Step
ASCII
DATASET STRUCTURED_POINTS
DIMENSIONS 200 200 1
ORIGIN 0 0 0
SPACING 1 1 1
POINT_DATA 40000
SCALARS Temperature float 1
LOOKUP_TABLE default
14.187646051076653 13.384452952725264 14.427167261989018 15.683676869869315 15.55534140029323 15.328050732908132 14.742907948737122 15.87901258301411 17.677091705248944 16.794424558502847 15.487435894060063 15.290951990333898 16.579580950527806 17.811447349574973 18.153121980543634 18.935515082265457 18.728013012074523 18.92362502376243 19.95295293741512 20.58521875236994 19.13048578320264 16.42991071137035 14.183610500796924 13.594921255985032 14.079970029313055 14.504793557704671 14.777174045925907 15.025585916477318 17.255107956164476 19.29712512631678 19.158392282784625 18.23841284342273 18.99298425097638 20.074393728977064 19.970806579653438 18.427412881639633 17.608988083200785 19.153277112000335 19.054778315095245 19.621677873492075 19.922376558371976 20.265987505624864 19.767626895017848 19.018363518637162 19.850839118627164 20.151373301365794 18.190605729437046 16.426243871568015 16.180223275762206 16.099353417618655 17.154620701728593 17.888346779019262 18.34839606785817 19.349586510905606 19.952792754060795 20.350405592138646 18.399686769189014 16.010557047639104 15.119040250303653 14.444349897843166 15.874340949188388 19.284119170751048 20.715171648415847 20.241049427069054 18.706248759444122 18.004457649615578 18.71426760560798 17.31764307599775 15.482240407986632 14.670250219079323 15.848209328652311 18.565158992242075 19.93992517344591 19.83277474961878 18.98562565649544 18.276397073945816 18.53418317256561 18.562049100917505 18.043920495036936 18.176966858742414 16.98845734995731 15.781697141949257 16.043304271024443 17.05261413385949 16.633071165442363 14.358199950340358 13.731854411393323 15.662949950746206 16.567115885969063 17.02320467232681 17.223997635920224 15.88340221367419 14.168824286579467 13.52538087644123 14.151277263374324 13.782426455518907 13.501316402528563 13.542624830398571 15.156722780935205 15.927556280896852 16.634195975584632 17.78460713453135 17.026463107298603 15.675782500307887 14.148506148112105 14.456100671606366 16.58397159251023 18.369791114375754 18.59459933918321 18.96241721237983 18.729847997891866 16.990443238076292 17.48341640864631 17.02824779849262 15.918160133624228 16.81094539527304 15.928935509481267 15.491983884563439 15.763703419523473 15.867160402167057 15.3876293810699 14.247333098927086 14.62196801719865 16.620484290827893 18.16423360101297 17.401337155508134 16.981975772997213 16.47864247599837 17.25590507544577 18.34148491731111 18.064146675079215 16.931584219282353 16.642844157495436 17.92623113693873 20.044877360725334 20.013830002430083 19.11532145625742 18.069132668237813 16.601857868861806 15.43170842224016 15.236176406492444 16.6676048350419 18.87859738258099 19.158113073518876 17.72889824195799 16.804594115317297 18.60294119808237 19.491455424219275 19.116171701741468 18.671492628298143 19.79117585907288 20.406189003929086 20.163775784897474 17.575385351489498 16.33243339283943 17.007648348856296 17.826075236858387 17.53327359629496 16.60993490027748 15.929821671931162 16.202135145295273 16.732426998479593 16.995835494616646 18.642835391588278 19.549904175647196 18.481169943241262 16.586104363952423 15.497752855993433 16.40519952643936 17.452540408984127 19.33547337559714 19.513475283818437 19.128741717822297 19.546680560926685 19.95012817673379 18.850145533793032 18.336686809374598 17.692916429968545 17.49512524173333 19.143569920051107 20.032360846909057 20.25185821294458 17.889157844733568 16.246202816228084 16.038601066162872 17.195337059885365 17.7514440417867 18.45634621628347 17.706444913393064 16.670376705519846 15.186375850908037 14.75034605467889 16.103067002899554 16.510069437879363 16.991782405617684 16.74015370577093 17.584446807934075 18.171894753869616 18.33499007121003 16.796389151849056 14.829201183863649 14.135356282676211 15.819890218118758 17.551881193395154 17.625803798397218 17.38903186031769 16.216124699487246 16.962768360765647 18.19759329138851 16.900475184239156 15.772285039114394 15.785293188754968 16.66817571638523 16.860760145091863 16.87039552286995 18.655174105513176 18.944591814923584 18.900577256901656 19.855505722389477 21.309053425537385 20.270772569305684 17.01029994516209 14.438120130915483 13.477677388615888 14.081908242362797 15.31226594097032 15.31429706931972 14.77882136359628 15.243106854297933 16.398337009238784 17.196208019047234 17.733307842922265 19.827706673273244 21.81804970122422 21.93585148588171 20.532624458309417 18.721193761548076 19.86004170175145 20.177096725207154 20.518421640890885 20.091153515674588 20.3454191000806 20.896707691840625 20.668215229220426 20.345280982392886 19.294521356093316 16.905446164251252 15.952024850411286 16.78099460644048 17.199712852816425 18.12321301262588 19.346833221561003 20.048219108922993 20.44504919636837 19.318824866910514 19.00997330242832 17.823698224385865 16.36588410631568 15.505933731551359 15.070307146954102 16.438743706755005 18.95842046305879 19.57499988970296 18.146815726565425 16.675525639093127 16.455136573066337 17.210532572794442 16.047431008682814 15.095075785728607 14.949661632865915 16.64445592250129 19.61197883858209 20.295596864866166 20.439629838310097 20.579735856006454 20.67770674279029 21.02158097826755 20.662915329371145 20.257832056476733 19.962184906174993 18.943515092888415 17.44129537035087 17.017729818615685 16.5813221994547 15.4554071540347 13.90534201268992 14.132530144224832 15.623906128048578 16.14194880761775 16.907806253289586 17.186197373966824 16.833781990834403 15.350498599397012 14.879055737398202 16.287838590827068 16.30068200665694 15.766442998043575 14.402208043959622 14.849160810666781 14.599041581862558 15.61028955173223 17.27179835509894 16.782244976588082 15.801857647725413 14.807973739674281 15.342462061590759 17.300945069647142 19.848927739086477 20.041632362859886 19.76317525542872 19.992879037224903 18.746294597859713 18.282101447762233 16.590320094070556 14.96887559686218 16.003756418071013 15.938959780545042 15.835946023201242 16.16572870911361 16.54721626547857 15.869683652020797 14.083786466750803 13.064675800133804 14.923566306207588 18.281611460477496 19.223230398400283 18.54087600034676 16.608569921883788 16.31710654495573 17.189297131632802 16.609700684286747 15.900737018718615 15.860058564378456 16.486058847350872 18.558571273383006 19.05077455642251 18.62011802196698 16.56857343463533 14.498683355798295 14.046439178879613 15.812585391578084 18.10860003627151 19.927010738031885 19.392215982028386 17.71404832671067 17.760127123892506 19.744056743953653 19.688427137576497 18.478495886805632 18.188421427853054 19.153075254617203 19.478761363434728 19.079036268553107 16.50769128820795 15.67444147835214 16.49289759151748 18.027860318131236 18.841540789547572 18.29847141703419 17.99810016879811 17.97196001729308 17.29217041167742 16.84771520650189 17.675266756386662 18.741842652554674 18.424805913090207 16.581254403691357 14.966216969265353 15.725002033435324 17.565675795729764 19.60168400443461 18.90134183149778 18.063761061817143 18.393959954420428 17.891677797950027 16.4907881683502 17.107987047545944 18.028693030198973 18.405437940296675 18.968735700188574 19.11256909580999 19.488840707519856 18.76150547420457 17.712656060635524 17.021016364581577 16.474413217757878 15.350829108312247 15.887411081064068 16.20671412974496 16.346181862280037 15.869836039364682 15.77546184748285 16.87039370022741 16.69849967128286 16.92973857756304 16.68524948666952 16.606921869321866 16.395229142635777 17.3092542850857 16.68874512892397 16.62121340541056 15.805758011350774 16.86385856728892 18.165682138393198 18.265675775188623 17.734787036311797 16.032167148226108 17.06004194517897 18.64295503831421 17.79129230501625 16.991136761872685 17.150873842146787 17.14515419797984 15.925989709113084 15.218650390835682 16.40849817015982 16.98032013295569 17.865575304802285 19.251617841774788 20.63459425942007 20.175992179385016 17.557182313091353 14.995681940887431 13.854852034946362 14.978063681828397 16.576773875186234 16.0944944853364 15.104742502579985 14.158520538573338 14.394235310692203 15.640600498409796 16.59769078094132 18.885972480136434 21.810765856660172 22.913435862615195 22.159717596817497 20.180903919620423 20.740921287052686 21.245678037131785 20.860919885333324 19.855354572681804 19.038988220032156 19.187055250339537 19.499763692158893 19.27363404994914 18.528819161681685 16.652649239001956 15.595944384583586 16.746580797815835 17.803191972122537 17.91764599226195 18.66582027501193 19.08430067259129 19.312654492497067 18.026083562779668 17.795619079672612 17.275924569095526 16.407570240704334 15.302546591650989 14.383997423467932 14.755587044882521 16.087955042961653 16.831059408978486 15.723770389722226 15.634839609556947 16.87691557739201 18.027265040261728 16.923520515976367 16.157341775537304 15.770776864492264 16.330039014689824 18.8001791476362 18.744999362822412 18.334753700601613 19.195600041966507 20.17476178677957 21.036429312880916 20.985673623344635 20.419187086463538 19.629178179066912 18.9095919305178 18.17972122328024 18.046763241706955 16.69644726085782 15.297566597983078 15.015865828580369 16.23607026714559 16.88558055341484 17.016646418775178 17.59015283074143 17.359542412357758 17.819042470133553 17.30242167729112 16.8433836224006 17.398106391569577 16.637293616068888 16.17278417821328 15.065352605795825 15.415166513488986 14.53998825506535 14.884692731949913 15.726963170945208 15.897421061034564 16.508361761149377 16.988170067122418 17.826696488754393 19.02357703555173 20.755027225850082 19.906534863740962 18.603713798127394 19.393164289651537 19.087734116941405 18.763267142064873 17.1706164306046 15.186712110952618 16.027522580921186 17.39173723116291 17.433249826127724 17.779645121984668 17.918734403082997 16.976320250048076 15.216580172888392 13.359989131764864 14.730379639691957 18.27864591578795 20.2305614571292 19.604775396554242 17.96034572074512 17.2972709943698 17.392394208905433 16.958049907194702 16.62192491102673 16.460234333321754 15.869570444836011 17.121512690863348 17.638080837901104 17.300410147790615 15.515909683235348 13.749147788540506 14.499416975635954 17.581284971195053 19.22416716895778 19.66642434838824 18.54963352207898 18.011362872238543 19.217174402602442 20.10460246235441 19.308688252033157 18.507374565392418 18.352836161776732 17.562108418449377 17.411044463737383 17.484811150143653 15.962431640040855 16.01148819028046 16.187870629489392 17.545352443751373 19.458211910840024 19.518099907333003 18.387876450462695 18.10444277625214 18.275452701276272 18.906716815563247 19.310254575345454 19.580045073114405 19.315590608520573 17.931483849176743 16.124633634186075 16.94762083131763 18.788629267063342 19.577178997279542 17.459690409151527 15.814603286771517 15.531261674131452 14.245490331575787 13.378427413040738 14.867236561461624 16.571345964749565 17.027500073656917 16.92388075010497 16.06893996226633 16.46761592618936 17.552962145849857 18.222969086137237 18.530166761053326 17.636270459022626 15.096164653950668 15.074511261509246 16.08478572224481 17.632977603960903 18.327839809782905 18.05761602170154 17.797004257656365 16.245288492735437 15.90889482522362 16.006052637523425 15.9250509072488 15.694555554734231 16.922711781098315 17.055864558000035 16.95579339123249 15.996133024446511 16.587638904584555 17.679196781027915 18.29514260323084 17.095542545583253 14.521699439011813 15.149767100389143 17.292907074597114 17.614311118773212 18.241036857635578 18.776776374261654 18.351688102144376 16.714217407507647 15.539995825701004 15.661465673089612 16.31073897818624 17.549828014855994 18.890712081392607 19.55121915144923 19.35713167954846 17.74424712232516 15.571089404703704 14.730858561760776 16.296676575839182 18.314603396031245 17.21373779451929 15.445451680817472 14.334712666998824 14.658758115876312 16.01231363607224 16.220158183119157 18.14368018765336 21.557323409033895 23.060813391062823 22.738082971327138 21.322189034315336 21.50367314958163 21.290034924400345 20.104219828547905 19.170097254638577 18.227505924368963 17.435512083384335 17.832292214334508 18.228661989600962 18.444714924783128 17.659403935136417 16.390638019563887 17.134124928955156 18.95123308214042 18.689391515965475 18.21236343364043 17.359072603231716 17.01529359314385 16.133770341190157 16.547573612808872 16.65854613057232 16.71702642596834 15.732287106525135 14.146468690788458 13.932462977321295 14.897390482505205 15.595238566456946 14.510945588083958 14.81042549891583 16.335274443363414 17.81477533181714 17.513619919353868 16.450336632029266 15.810630495046063 15.601802064801477 17.564688731626195 17.499479992209952 16.812620306928135 17.962989843742314 18.81432042213281 19.623154202016703 19.735542433459116 18.941564995126807 17.84010214830672 17.006645519969748 17.415054639438136 18.127696796234613 17.2588000647293 16.536162721546894 17.418943171407772 18.87491521656997 18.031377650165098 16.59052975181478 16.35668185243291 16.410598814890943 17.56494369885756 18.124942835840248 17.988153179441486 17.26488143178797 15.87245444673103 15.6336045048727 15.795170155082591 16.930132736448584 16.124031180797346 15.354045736204615 14.95193245030545 15.269329300930515 16.434855693095145 17.831896237106257 18.29874377232249 18.616263237055062 19.48986150063895 18.098856025327002 16.262294714898225 16.892838403485744 16.703033098712005 17.346087943412687 17.257254724523364 16.258053732492744 16.867217468500762 17.550354768882283 17.065887066686273 17.932300667751488 18.103852301568697 17.651605378812782 15.866284665912785 14.303440995519981 16.02377594612001 19.437137234594218 21.25730695349845 20.655203462112716 19.077706053362526 18.374919527816154 17.961006054294586 17.83251581160648 18.122399632614286 18.049233962695666 17.196035901372063 18.127574802060813 18.366018143646155 17.427289183457695 16.617992477801963 15.126758973509192 15.85544718182394 17.84390905577754 18.20436586913758 18.112648851621323 17.701014542736612 18.42299852450401 19.61106951276982 19.00532887670209 18.20960229820793 18.16043080088927 18.771496913810687 17.464043997126502 17.09938337458392 17.530635345906642 16.44333668079427 16.83641430522048 16.66702884272587 17.493556400622353 18.96930992034239 19.065282543767985 16.899893263046536 15.884167260425485 16.829562549565868 19.004116591169957 20.445225666122656 20.520486087355746 20.423581849812173 19.049695030528724 17.907708418356044 18.515864000246648 19.190554667577707 18.590085198995716 15.992376114295421 14.548368672956864 14.3911665683517 13.61085480984937 13.734600978164014 15.710737496891635 17.328057445013997 17.357713037724235 17.326244048841996 15.867599967004061 15.659467485357254 16.914484027404214 18.59582709709027 19.89504994646933 18.823273629822772 15.322024441622691 13.858561635480884 14.578361370120351 17.0239048988473 19.394724300494712 19.6492726742547 18.393733902412876 16.08448359983367 15.845292372771242 16.447201200815506 17.003386382448642 16.86636194321712 17.65634833865859 17.64481412806559 16.23008901670735 15.438009854000148 15.305848307676309 16.125994238061377 18.172854857097423 17.93899905105274 14.804126274079035 14.196841977097911 15.666755122042533 16.323838956810327 17.368723716751937 18.07721505636983 18.077737329863314 17.919181001513795 17.819600739231777 17.769242261347525 18.333310478322563 19.510010219723988 19.78421357283483 18.908250373142877 18.330873920453328 17.770865977068244 17.09422397680425 16.86170523874528 17.974986674953968 19.072136454487282 17.0658999716525 15.310977733388311 14.885036344945698 15.659730156008983 16.137164468298245 15.296581638095784 16.782767076196773 20.801543277978332 22.868723862997797 22.601413918261297 21.75669860417426 22.09414595213463 22.166811750937338 21.121082193829025 19.790806145565952 18.50902426372738 17.13305238791083 16.990746025351125 17.15142527394462 17.927505330080614 18.5344663042984 18.064711065787037 18.387197406248497 19.015905215602324 17.534506092807934 15.986199874717801 15.31684581430168 15.982291428218401 15.697461952935408 16.141303830072264 16.525860492094292 17.277495606991728 17.31028522292555 16.101444563431993 16.07209961510571 16.877604415054673 16.510128075902028 15.072405125936479 15.306768424043337 16.258723573889757 17.14771228870531 17.657825785213333 16.55316268751286 15.16627943860358 14.362924050933842 16.0567118034137 16.6789965158896 16.27151656469275 17.635789541134823 18.67562314629889 20.173403683092925 20.870725137824152 20.187284217852802 18.13380654566724 16.421993651046296 17.101898060095255 18.31629515449786 18.033436994436723 17.83559625177823 18.84568443469984 20.032157962008114 18.6374917285784 15.932119673133714 14.945862264145966 15.724197342704072 16.893918805217545 17.348760258118855 17.756125486766102 17.702900523189093 16.873874776233052 16.77568266465789 16.95948657544493 17.866740196749543 16.860668624556794 14.981437848602978 14.41358473412141 15.723087384170004 17.060950589537402 18.04125570299456 17.695163263742632 17.142579284107537 17.294299236218844 16.07971013368244 14.549062375577025 15.020982336346203 15.744669113746829 17.67323444161273 18.138963029060378 17.669344453846033 17.7719418862177 17.18876431197014 16.80025062392579 17.991746056300077 18.084243885888675 18.49824956809412 17.17888035401666 15.52313370159579 16.344525416586443 19.237219335363438 20.765429275784932 19.917332318555417 18.00816047923206 17.299929135165016 16.419900343591163 15.85801257099952 16.549902148160953 17.27726468324569 17.232153468916977 18.007748742666248 17.631818072772727 16.69570574024763 16.890618949939352 16.140979738849897 16.24736439498685 16.378482218434133 16.344856678016118 16.915267739249877 17.528350813281893 18.68092452289648 19.29609075716589 17.867106814468595 17.064978869200733 17.74260380164247 19.383367580670203 19.014743436967073 18.378626642599976 17.888639795287386 16.46979720836761 16.860885526281834 16.35259745868706 16.528393982382475 17.10261463469105 17.93585476318758 16.399640626701082 15.047632147045181 15.834156873422202 17.49967151423786 19.601018625481714 20.163279348978296 20.26417230007526 19.186214375144758 19.561717355657493 19.89996194048339 18.373823591587417 16.839598280839205 15.049015194329469 14.114465413931727 14.918849149171256 15.643488692210052 16.24947484591294 17.01866392854212 17.38539919383879 17.38139127533736 17.878338597955374 16.90004476152648 16.06968516736004 16.59151844885269 18.90883491540914 20.436772384765003 19.371346832607376 16.181375348617006 13.804837814846442 13.988885597362566 16.2241707208726 18.386329134082473 18.34215202267037 16.93637734429674 16.019821843961022 17.013145009659286 17.421693082838154 17.957789415530957 18.002554195757913 18.419924439896185 17.76665160181139 16.070294645837524 16.521774534355192 16.011934822915062 16.2502828674185 18.321126033976388 18.950967025009138 16.1203920187677 15.162544703299185 15.795971781660478 15.989973316559801 17.12932727898742 18.19363035722715 18.25042937868065 18.739506380320826 19.21421222349013 19.359099131267534 19.928240096162117 20.889523617944647 21.082821392815525 20.307249807292155 19.838594156906094 19.77176845161308 19.387001244962406 19.061450145828232 19.412590869073924 19.190394272313014 17.340143970391765 16.450762399909493 16.803967917667084 17.026034674448265 16.035915075811513 15.114116245236323 16.857266737818804 20.48026603627122 22.154495995481927 21.688011499574845 21.45943737688456 21.49911212089054 21.562676235620483 20.465041961080892 18.924368248075734 18.46738504597848 18.025485607405347 18.092747442839343 18.089597770788433 18.82659011437431 19.408551104865822 19.710664588591758 19.24855908892979 17.484930940581126 15.271631679198377 14.40515575907604 14.920677000414074 16.24819967360587 16.659717129178453 17.040215564331874 17.202315187169276 17.786881976065388 17.988640658240737 17.382703584647178 17.264397037549564 17.712762634741814 16.347333852692596 15.139326288009249 15.792639326677191 17.082724907797576 17.873089165842067 18.45130197666833 17.549140760872323 15.92600982557932 14.941895630291205 16.613632125212476 17.811821085674246 18.06007488540734 19.710469791662057 20.434101083060714 21.09901193644746 21.18402531195057 20.32609025777913 17.64780885741888 16.313127185494942 17.491832576034078 18.614556122071175 18.774620541352103 19.545345844248022 20.235862175704927 20.011111115322887 18.13007264151251 15.699895009573638 14.949034272489833 15.486599770833637 16.322381227610773 16.967399469555225 17.798547156910697 17.573198095955416 16.79007462222545 16.916219955038816 17.329571313840727 17.72655579362356 16.5959933182655 14.926063107373958 14.575086034148569 15.799135500249163 16.719873896204707 17.15602382882353 16.598094881540995 16.90041885464725 17.721577764355754 17.26876997946014 16.09532250970556 16.436942810842975 17.170436141189168 18.728613583355642 19.35915459558178 19.28162637087446 18.624905848461832 17.225762128329183 16.76011884452849 17.54784943235769 17.904375142639317 18.866463798034502 18.40445843506108 16.908325845482185 16.589247227099463 18.42654328725518 19.704106040210306 18.46271992356852 16.338737493676152 15.771333217989792 15.169045586168703 14.745756590159676 15.681198031589222 16.61108614020614 17.25997686476573 17.21424555031317 15.779254120040267 15.391322408051426 16.6421593957441 17.142844505073665 16.69531287275549 15.846588245094974 15.859032949267649 16.402207130631936 16.84295882114742 17.69903700695831 18.449739244486178 16.87881009788954 16.17332812757271 17.37699034050537 19.30020259172708 19.662235918525692 18.88684181479469 17.608022467468423 16.309445862561432 16.378630388850727 15.767428021342843 16.683187502454185 17.29746440273548 18.3542432019452 17.69071814547809 16.417794605980127 16.289829773380355 16.15184066442656 17.5157362162117 18.263261363221293 18.9351565464707 18.841582686609424 20.45974088609274 21.02363640350507 18.736194139461215 17.527948320743555 16.34315648445006 15.148314349827013 16.52247709428949 18.327696350424866 18.441325581922893 16.851744683478973 16.042629107936953 16.078833332045072 16.440166086214678 16.122864176713183 15.88215099539822 16.35564084348881 18.997895368701506 19.83662404813415 18.75854409074093 16.892706441916435 14.795381840567345 14.545447316942214 16.336372708989842 17.446061745476232 17.552276719125338 16.299503634740667 16.528949103154197 17.79848323850268 17.816066938983283 17.855269805122678 18.052436407228164 17.736011270633604 16.613107728408234 16.957890150838843 18.690460095972043 18.98297774486404 18.930398876482812 19.85795040302887 19.675035243878504 16.775948511491396 15.838731079598267 15.625818917741787 14.84428411169444 15.894592363671057 17.12525464352324 17.24608974703504 18.470278650826504 18.91845745582942 18.344298790660293 18.357671342988898 19.50187462533885 20.35919280201951 19.864682016495824 19.071469403289544 19.45767520442776 19.733559044375724 20.369857046230663 20.36560440277807 18.63793595802489 16.923784887728118 16.64854005710609 17.833047914487747 17.720227047861588 16.484281130524835 15.713800575431334 17.62503836246501 19.896774676511974 20.802277361048997 20.684818121287616 21.314595108519633 21.298357288191422 20.836647473565655 19.008869334146805 17.628241191496556 18.21711293474254 18.93311717120046 18.152680110849982 17.430667626388434 17.807974763799937 18.32701707739996 19.861161187352863 19.523070235185894 16.482522859785284 14.315729036553572 14.782784939828424 16.395393637476957 17.16191903259639 16.890941671943217 17.467463502599415 17.946650132830964 17.81535812516601 17.42722987709821 16.929857623792202 16.130297054082533 16.212834354977847 15.51022875947065 15.819655550161341 16.847885792795996 17.487622678340056 18.174112367307917 18.562144179937064 17.454607411249064 15.50309739760319 14.972072482007027 16.765541334397803 18.534043444390868 19.386661443804172 20.37221914872173 20.225689623789076 20.025810538890518 19.606929923421117 18.94097382887436 16.91664162431728 16.857890799355896 18.620054112204613 19.31727757097352 19.48387521952654 20.456625068382838 19.86040256824223 18.379931269659394 16.62638069772871 16.08368544319886 16.834473183025775 16.899219721735133 17.15145659694135 17.575095416122323 18.52357011174115 18.09844147488112 17.344314342335984 17.51970513503678 18.101965879625233 18.07278444546562 16.970996587070047 16.00232586159357 15.968774890027477 16.76648460812861 16.672391820672757 16.611150438694274 15.288275330412787 15.291469183395016 17.0084857431129 18.42526656409398 18.596844086126982 18.675715632559626 18.515930450107312 18.624461377853375 18.67672840564775 19.35101324284318 19.119383120349593 17.974662150599833 16.852446682011482 17.20456763724101 18.295339343120443 18.513447708242982 17.23579824430119 15.305067396444615 15.23908379679577 17.79664754110904 19.032673671594658 17.920911374715605 16.15500816134832 15.588438565138906 15.55439952684258 15.948196844398096 17.02899978183502 17.224153070846352 18.110688369708168 17.782480504269532 16.167051990673958 15.829848896957753 16.463819460719353 17.6053376919319 16.91986948571599 16.05372413284382 16.209528862206344 16.371676737132976 17.062145000585335 17.77986718071414 18.328635250181534 17.12041288032456 16.997391343623907 18.42365284373441 19.167159556268967 19.457657293321596 19.416741592757408 18.30128924462106 17.023243395226604 16.449991756693844 15.362331444923823 16.424483098194017 17.36132077794107 17.6651469394374 17.577458868865406 17.428056496168725 17.476701823365865 16.697228958140922 17.22328854843882 17.24638165234718 17.637295074133327 17.96758145751825 20.049716715804838 21.337481651506472 19.926769620273124 19.291198097379947 18.002591951776058 16.22398207257516 17.164632924636877 18.90861540940683 18.527800561387263 16.06334024708192 15.367663257843775 15.72086804722195 16.147664711450833 16.418273384202507 16.036025425365843 16.4963954367901 18.942599018423426 19.028077688450214 18.50510938881257 17.648725431197846 16.35539478531191 15.781135990487977 17.047453218999973 18.086631473100105 18.87692513836565 17.359570200320523 16.644277826459962 16.73054790509197 16.139794101039566 16.347993023192835 17.29345619873069 16.370192401141754 15.669931331899 16.89677176234212 19.206155008351644 20.24299815060608 19.977973142358117 19.845919262649428 18.928470714942154 16.207807011331962 15.58616129781765 15.490918132259598 14.428796607142193 15.633291033532803 16.9663939462595 16.817872534099788 17.87856431997368 18.325497523291556 17.313335808804027 16.521434708962605 17.699287191972765 18.820145150606862 18.329098954284568 17.023548825814142 17.724773555695645 19.30601495733048 20.938072583126182 21.58646516031477 19.8617832344312 18.32062181906004 17.731867424659743 18.090729260222403 16.890898972701326 16.225392278783218 16.411832820178326 18.20024221272413 19.748323237352757 20.425885198640422 20.582634600002006 20.266059533128693 19.24139330965281 18.50514624698817 16.795476115195147 15.820168076212722 17.4091382348474 18.970489562915667 17.616111304911175 17.449391637823386 17.97485367558812 18.289096941211607 19.16843567154004 18.827116172248946 16.35583204525563 14.392957099042594 15.157077732453669 16.422033493218642 17.056177653061507 16.851207922484306 16.94603606633633 16.669773152933697 16.455110662047613 16.910879602650066 16.584055724301777 14.70801241698378 14.299797835831125 14.529567126422053 15.568668478011716 16.64949392595016 16.270377110991607 16.280174198417296 16.774926993810958 16.586550672440236 15.393347052782977 15.618120367517191 17.215987656217496 19.247635815801786 19.575548245542354 19.46801503760827 18.744604242817072 18.542558312006143 17.96888990389712 17.77220090766047 17.048583008331203 17.455573479794396 18.499489521996708 18.46192166245821 18.482315282320382 18.990389544253322 17.095437070558862 15.673374086037088 15.834348750319048 17.11507354710403 17.4233048319823 16.48683079622059 16.546979011593464 17.206953610714606 18.2116080135497 17.695125666831263 16.610662546720693 16.713615112190517 17.235981844745563 17.135689543149766 16.265798085102112 15.855498851691614 17.37903906120941 18.23715655213713 17.37515886967911 16.479479286710145 14.24533502240557 13.44658164857566 14.800298433158307 16.992219059225206 18.335338210974502 18.12374640728796 17.989617241368453 18.342720391043255 18.928560091762858 20.48596676273693 20.485645322889535 19.359024115547356 18.446957302282808 18.451330674046815 19.21737679435535 19.263466192582023 17.79123911495464 15.064921651430785 13.929558493694403 15.986947371347577 17.479871312806207 17.67849673965663 17.37623438005931 16.71134528784628 16.749854262110198 17.47763275038858 17.737372921727886 17.078063660898113 17.786619974289398 17.71910509811277 17.435675100944486 17.375452399425463 16.665925808267612 16.92251686962961 16.24742157928767 16.215593849007362 15.994230361963933 15.69224758713832 16.325107329172663 17.92505416063136 18.564106585522197 17.883012129158363 17.801310194526685 18.68573027041646 18.24564378242907 17.37714990303824 17.53671060345916 16.745922844666936 16.489540513352242 16.860309250759933 16.05117061606431 16.49349537209433 17.219263278002746 17.325292859972222 17.647522797626557 17.679988788416118 17.087353618951372 16.312166787830105 16.708387816356662 16.824110762675055 17.54347188153924 18.43941468401653 19.98439009347161 20.559617989734082 19.542199410738817 19.370489217700378 17.958439058283066 16.710111361310204 17.375981826423224 18.64563984383846 18.258593784810135 16.496096625828685 16.340052751633728 16.381268921678988 16.148822109392192 16.764883207777324 15.739726959998535 15.3062633395552 16.83896901177498 16.60444308636422 17.25329047286631 17.474854245772498 16.778190982828807 16.373465430028098 17.45535944008741 18.731282967667838 20.245241506422335 19.127868086192855 16.93819120224264 15.615134983843165 13.995456831417991 14.603980820423