# vtk DataFile Version 2.0
Ocean Simulation Step
ASCII
DATASET STRUCTURED_POINTS
DIMENSIONS 200 200 1
ORIGIN 0 0 0
SPACING 1 1 1
POINT_DATA 40000
SCALARS Temperature float 1
LOOKUP_TABLE default
14.633558034245839 13.91510387640771 14.705143133300194 15.693823761457068 15.755160647650714 15.495979419388197 15.122566549627667 15.918022966856551 17.094551811128785 16.581689108634123 15.667966535775905 15.608316899106928 16.574304841817433 17.533953502013976 17.98889001730358 18.553308426018404 18.644038237856407 19.01572436807741 19.809579503383553 20.186522773479584 19.027944714191392 16.797232801816065 14.836631421619124 14.137471711425015 14.402672912141846 14.7291873321412 14.953585175920626 15.423949469512493 17.091295695583057 18.589823356007106 18.652420732414726 18.168855431133814 18.776873983122126 19.642707299390818 19.63957782788319 18.628297372535986 18.14195913576933 19.15862961052184 19.412824465681307 19.749063726585998 19.927872654423044 19.9517243411724 19.49839500424398 19.07339327321367 19.540807874394368 19.53396102153706 18.035876552554505 16.612801659944882 16.240837937647974 16.364549933894658 17.20111159502983 17.888839872025986 18.33725223582782 19.072525919378347 19.58969945728377 19.796839211160712 18.41986898998618 16.51521124844744 15.469704305950872 14.999145321498775 16.189884372692767 18.697069516061198 19.93739970742263 19.53978068459688 18.383781553472424 17.878364666047972 18.116283724700118 17.045418866627443 15.598121632912493 15.016706749797695 16.027749837023833 18.170384692384573 19.371749722958338 19.321907722980637 18.703954546735286 18.22512604399936 18.439971673113494 18.621690598027037 18.387397658319134 18.18566386864258 17.188118052932005 16.292942194376334 16.37166449344488 16.85028850177417 16.35512153147771 14.742015147042205 14.270738082237262 15.53045162085105 16.54728836940643 17.101797073147843 17.101970451220144 16.041196707798825 14.695007061133179 14.136273414654397 14.37480514210487 14.084211839578089 13.835764791216139 14.037583845659503 15.209943825902872 15.961369939137581 16.662314917072127 17.347623318479062 16.785504358450574 15.694768849947843 14.677344791867142 15.126916411788159 16.9452944541844 18.448724102625953 18.695437061563855 18.736905962437113 18.4417467507561 17.418345364107708 17.526317200618173 17.14195115934344 16.441322744652165 16.83451644823413 16.38950182503906 15.967531381179587 15.957806418503443 15.914940616461717 15.334025935532681 14.509350873260392 14.879695102181056 16.482076198900792 17.794543355211385 17.561553792340014 17.12206529024215 16.82624478169852 17.333264139042463 18.010161870911286 17.7371133435691 16.889875167772 16.73183175435195 17.74126688345405 19.280402272970836 19.453424509982593 18.760402908667594 17.697000639713654 16.398329502553317 15.512585400218372 15.599675709723918 16.935520289050764 18.652084845848066 18.84112176510138 17.867444245885505 17.426234819126815 18.602674875675415 19.31436172888854 19.20027840675509 18.969056357843655 19.511530310774223 19.933236302551546 19.594476299772797 17.737676708536178 16.691282350981503 17.099332446733587 17.704363799872393 17.548501320198586 16.834870916664716 16.329984926706615 16.563482816394618 17.099044548709692 17.604570135263458 18.727872941851203 19.24759184384004 18.35819796474971 16.79075334559847 15.876976350139671 16.452860347304586 17.46566431448085 18.853613362415352 19.136819349739746 18.949608996837195 19.22246134395541 19.36967368382565 18.621911103252035 18.15579005771782 17.808053586734367 17.841189172561045 18.936407523483567 19.703835783937983 19.712994710295384 18.080208312688537 16.71688981509372 16.39127077183967 17.02024189075759 17.474257864123413 17.939087169752572 17.507844567108503 16.706140211808222 15.590150878760051 15.206646362221973 16.02609723026424 16.50992986637262 16.894544711129754 16.903911876760596 17.451060643400304 17.974845240989843 17.987960475806897 16.636085379151922 15.187619631525726 14.650384422602823 15.791913626532269 17.104817859843074 17.322949435207445 16.9999207688587 16.259181026595538 16.85195457493405 17.750186649506624 16.991306387945556 16.105839534110533 16.068036716840876 16.642144043742846 16.856407466165226 17.05513226865181 18.157797191589218 18.57888457077546 18.891016646615604 19.797707304454104 20.679369036180162 19.72012611442875 17.1069552118106 14.802923480256894 13.878092528204075 14.344540156896624 15.222075240114735 15.294658243234059 15.04304455785593 15.50652753392316 16.477938640298298 17.21417089214925 17.85753489352346 19.52992456231153 21.21116384624405 21.480072154206535 20.406157779348007 19.217085508988596 19.80734848005869 20.15947508968094 20.330532100356386 20.098333317721902 20.148678283325197 20.33816500150922 20.195131242957316 19.95258310887714 19.0721839311069 17.260984244670677 16.283198903510897 16.674517871246884 17.196711208361656 17.99258925865973 18.93736369158258 19.556004339579125 19.846556546938416 19.260857571087882 18.857261682216155 17.783350445212672 16.442053340766243 15.533421966463871 15.191523698643362 16.294219858694376 18.266990785546408 18.960380148386456 18.049180294328938 16.999874643916467 16.86204647074737 17.239422604475244 16.373810905397 15.460030374248221 15.330536883392645 16.674046858001574 18.955830170446532 19.83472064735506 19.98324425237753 20.084249916131807 20.224778094449857 20.49842725155196 20.33244627902399 19.942345105204062 19.508541833204973 18.56984048430282 17.46149810979753 17.024240194659853 16.56556254334042 15.585462559703515 14.465312031207556 14.62178946050948 15.701587212325771 16.347760805067363 16.93760449519586 17.103680699363935 16.687344638285985 15.63514383140497 15.25649980270883 15.944668766143918 15.887140130598214 15.398063866542651 14.65027520617996 14.924284327765692 14.99210276319341 15.756028416853672 16.80674915316269 16.589020947775207 15.892263067866933 15.292133711355236 15.83746537612409 17.525697966915665 19.394205560528228 19.69082654367647 19.489483153079203 19.45326748174598 18.60236035297809 18.042641069969108 16.765247574104055 15.584235794547205 16.047277480606656 16.157762820264868 16.11210332203044 16.34602651025666 16.482916876279738 15.80404665576911 14.431894948731545 13.834326280923543 15.391722156162398 17.908803572067097 18.825849256236953 18.303703122005867 17.047809566424526 16.783739090034345 17.203567131638295 16.846046954071706 16.278593363210952 16.207282664031347 16.830128559524397 18.32022870757741 18.78864141634222 18.24994600781724 16.632420688415543 14.994872718816502 14.696131632523338 16.077935959214066 17.955871453940187 19.34369011326053 19.0524504359525 18.02120337730852 18.113120067400747 19.332285121303855 19.415772626027124 18.70380544109321 18.467328200293238 18.939489719737942 19.165767923697636 18.67811631075664 16.858169455865383 16.108787221698446 16.664940055548307 17.825335364707875 18.50862387693092 18.20784464825616 17.794845709268454 17.66097469864316 17.402538554437466 17.381424599553096 18.10004344764584 18.773466499657022 18.346836832429567 16.849112876926622 15.639603519614061 16.211840687420224 17.71983369679603 19.108648552158268 18.707911991953058 18.0329805236977 18.00868729609008 17.53954599746557 16.681014060150577 17.02706071374157 17.70279667726801 18.10901937376908 18.61674129422197 18.814059522067886 18.97726842229946 18.409817365500516 17.642217252187468 17.13025129339784 16.670482000801794 15.912510488712062 16.123663994050986 16.374765320083817 16.490401617825494 16.202150066196612 16.142285975489337 16.719573876831568 16.656773981955997 16.738793981218873 16.637257153720054 16.65863127850126 16.709980962992322 17.17986851469775 16.584266009608108 16.384915111332685 15.875114291375358 16.68671575361723 17.769763859952253 17.995923004552445 17.410691576140703 16.242571303025215 16.852538743075744 17.98490583166856 17.610432654641897 17.111211121387615 17.150667505837824 17.07369146014871 16.27970711359975 15.836782579141202 16.597077506531754 17.23840790193671 18.079982095511607 19.27486246535458 20.24326436583675 19.692411524995354 17.50117757847573 15.276667653129946 14.333806915938911 15.143377871624327 16.311065595530376 16.029191164880213 15.163508137781001 14.575961894734746 14.916968015533344 15.915993454231561 16.934900529691703 18.985455272501373 21.428978665698093 22.43199749303745 21.809539546575767 20.49944562967589 20.708387572316063 20.960594761030016 20.60996381828875 19.833115718085562 19.236946055772638 19.195273053450666 19.328032289503174 19.157784500753554 18.453873983476438 16.992198722207615 16.140846065618923 16.8387730881298 17.73330141961407 18.08901585382646 18.597452924720905 18.885382343294985 18.904393322947953 18.08246664576711 17.749868025999415 17.218419729847525 16.41427718314556 15.444865967939448 14.70476598734289 15.075481186462445 16.23557915156555 16.783840820331616 16.073737623990745 15.917669789516431 16.755235680779528 17.54945906307652 16.901253251320533 16.137548656425167 15.835387575911053 16.52297144634319 18.339214089257577 18.688160259999027 18.584240058831742 19.212341548950647 19.997037402192532 20.65558795515086 20.643556564639 20.126048333395484 19.39054839696624 18.627792799085302 18.02129079912493 17.7304973172597 16.759510653316028 15.705697046489712 15.462886621427662 16.2497296048489 16.77968877995203 16.89007015973489 17.2118064273731 17.25290742324463 17.47405175230481 17.12553026767963 16.832192222399755 17.011292430718687 16.481214953694757 15.958974644732322 15.287121307023213 15.404194042062908 14.965733728909516 15.156156995511111 15.745116145173997 15.99154154214429 16.397698664967734 16.845887970804373 17.592670782346968 18.740810188415107 19.992152995081113 19.53560472389717 18.680063667632393 18.924055173575027 18.65971167554521 18.2858833724765 17.071305772690852 15.761069188296327 16.22705597540192 17.033464006055173 17.195354603868676 17.511916041256725 17.55922280408807 16.757247269784077 15.20887962297919 14.028049909414339 15.315225394109088 18.166045452894352 19.78138032036072 19.38612478426657 18.073667293428176 17.433710777021226 17.36561941853656 17.04147388904744 16.75505381677646 16.5809732658877 16.440396015560285 17.369251833045112 17.781384891379457 17.30010633673408 15.85616062127629 14.502107255088388 15.01428609353624 17.16369442807782 18.67699275124773 19.19970599596033 18.606494214838502 18.278197576226365 19.012224005850616 19.61639485829833 19.164166493428777 18.555699759331002 18.333201609706993 17.88267842003485 17.708558967739283 17.501829308208436 16.364003258501615 16.167502383810024 16.488044636907535 17.645804539309193 18.97387324132499 19.040493766987204 18.19890125781012 17.82723945770783 17.990730394705867 18.593598721903454 19.185000215138622 19.48124549881006 19.14406155151982 17.881994895109212 16.64604331131345 17.18337670600728 18.490045104744162 18.96724802023672 17.50736967200178 16.173097639826096 15.685501631945627 14.807679510835378 14.312020439662007 15.390848079153209 16.702614890498864 17.182841079411943 17.172185860017233 16.682003841510372 16.903073038603743 17.584016797501537 18.126449089291967 18.291441635860142 17.41451233933784 15.570567618713612 15.249226219486467 15.996530537786184 17.23103545596397 17.94078522043408 17.891024055248185 17.536565704661687 16.46848374722981 16.13561871827103 16.17269217618094 16.189515587596237 16.200380329946572 16.93897728106421 16.966770065483267 16.765699021123222 16.118321348980615 16.534456679448148 17.446274800225 17.969345215481784 17.088479783178407 15.28647877027665 15.551500314829454 16.99026913894095 17.456743811635107 17.904061945959217 18.274354750115457 17.955717869850318 16.86526044389289 16.071257355066088 16.21380377001693 16.84521540017361 17.917118738234215 18.984181966674385 19.479796094836118 19.117676050364224 17.67350495658721 15.95313736325259 15.31660168640917 16.409649002863944 17.682102144968667 16.908937632709616 15.505223737624812 14.666365859455379 14.949964642048833 15.868130363200953 16.440842627484187 18.302702726259916 21.166416166690052 22.643571982452542 22.428862097062233 21.441437890889105 21.413292672550867 21.230681939976535 20.34553389970726 19.364281637567643 18.45537233785512 17.85035382267113 17.989010980013497 18.218120629927636 18.251673053353734 17.609383717444878 16.846437827970906 17.396572043289886 18.47066783789676 18.340412313346217 17.913094491230392 17.391225916348365 17.124040987490222 16.552512630414093 16.670183268368305 16.725897655405713 16.612695763656614 15.827104192469436 14.714160517142352 14.591652640301788 15.330531961749836 15.689706121111964 15.01790715711167 15.229853729405525 16.396719624172906 17.474151050686714 17.313070919064664 16.47030811066972 15.827331117634255 15.867901141711506 17.250377317796406 17.49192718399392 17.272010185559438 18.12256025740821 19.01109418812058 19.78997414720102 19.921740466665756 19.258770213141958 18.19373923479283 17.402548980125637 17.533743426999205 17.901823437806556 17.316491268811035 16.810692783780357 17.372778228207135 18.297866017443283 17.806450403031 16.724920368828748 16.4056908649272 16.589681923390902 17.383021916551193 17.76763977424211 17.688635938150107 17.2154724783893 16.27371397510052 15.939064487914779 15.995356302715315 16.5582607760935 15.99393025858976 15.333798899360309 15.133607349056692 15.558170671858491 16.538371050300427 17.572947999267118 18.078231872029363 18.49254636308712 18.998394262528272 18.01685234367822 16.747691434736407 16.93937356064059 17.029634592636423 17.4639484750867 17.25910854559585 16.57463758563466 16.899116515153008 17.31753971417997 17.23473441153091 17.79099790396272 17.938430177287117 17.45065721388095 16.00650637986443 14.88751227402645 16.197381029654128 18.96794647719822 20.58164322528728 20.176612963798966 18.857670248707247 18.08868000899395 17.670090566267906 17.47389082116308 17.613350809983732 17.591412482895645 17.257419316887262 17.854410600535925 17.972141456295553 17.288603760420525 16.436917040409426 15.432591643012548 15.920982454378235 17.353835463003637 17.971558563750904 18.094686877892855 17.954152880669717 18.456336730923955 19.22380700218784 18.924265858197217 18.318192743847426 18.245479651729944 18.540572558025183 17.83314444315796 17.454705812871946 17.392503446492675 16.60456195414388 16.66343676993365 16.706122109947643 17.454738960934048 18.54662373394642 18.61425473366274 17.203890696658306 16.410209190159243 17.076745290502828 18.64913744349991 19.902782599613936 20.216603345170224 20.008881666983417 18.939479409421157 18.14532042576641 18.481208505602332 18.809404324260694 18.187042591101388 16.258646964182194 14.940110238859662 14.63072981790009 14.208346285802856 14.393403646170004 15.767966025626167 17.00582062633461 17.269366071708305 17.157266714605477 16.253370062309706 16.106977236305145 17.065706836682672 18.485305690253814 19.35440980231982 18.34229732423357 15.733923096887342 14.431961213505966 15.006260718360343 16.94686183079653 18.714712633380266 18.943285958768197 17.941422766835206 16.412568570073805 16.164242898459253 16.534572452518145 16.910889206707278 16.996959425206818 17.517175356599306 17.434158073021486 16.419236312914197 15.814309162387154 15.797206860097067 16.56476332896956 17.8768550934622 17.54622966731989 15.376589430681772 14.839626228759249 15.827423498568495 16.51064804602032 17.3834106567502 18.03002124128165 18.069887088853587 17.8639046804131 17.718995354471325 17.7907333112277 18.349637464483575 19.286696689828954 19.6607871518211 19.21813521703861 18.68049143760084 18.02792239622372 17.303601470281905 17.104346554390453 17.90829936114976 18.492256458883087 17.12349560169971 15.708003723502205 15.276637277692487 15.683735395467888 15.962561775854345 15.801638867341385 17.380931453560535 20.5513403725138 22.382628395502117 22.362919825872346 21.795973646055202 21.86515198760963 21.752988224237267 20.81409420277961 19.59151860684857 18.481418238603432 17.5223696619204 17.354245697831452 17.536720454212126 18.075067843816104 18.377804819407487 18.158863269724 18.336799861036596 18.46180781302151 17.357669892611934 16.231573003823325 15.779498667047976 16.096756118954538 16.03291470266321 16.349747854737874 16.698767768570786 17.141979775226968 16.998642964544377 16.1717137389588 16.06322634474178 16.524599085932746 16.207413410980696 15.285509259416083 15.473383034171624 16.38677440876894 17.245858489576133 17.49956465434566 16.62784634733858 15.488958322927713 15.029414529287664 16.221328178388966 16.849311856639602 16.90816002528785 17.975675249829003 19.00375591418708 20.096839746030454 20.517612434996806 19.80982492895533 18.12232683970863 16.89171094708645 17.306673301432205 18.120694390640214 18.05199936152378 18.061283571599333 18.79703863764017 19.406808901916374 18.254958213010664 16.27066069456331 15.45512383495889 15.909083009506492 16.82703437830564 17.37111048557159 17.690012841039124 17.512168725393863 16.853983378262402 16.706600771058522 16.92564757679964 17.395503204031478 16.581342151440357 15.23770171720383 14.827747577385358 15.722269090951801 16.858056726228725 17.661756256258897 17.582466916955717 17.39163331260123 17.45348104184971 16.532862913662594 15.405645339122295 15.624498316024173 16.30205895150773 17.594578353946186 18.028016487761636 17.756709407324312 17.67648682252752 17.282356164342612 17.0675039422543 17.784112391102163 18.061544316609574 18.151612421974338 17.097373825012436 15.92344431394895 16.639881791641166 18.91103092101348 20.241872814211956 19.608393416006344 18.07952109064084 17.22556568339252 16.522599217715083 16.17609667601081 16.653508565808096 17.178962823769595 17.318398926983818 17.728505326204587 17.39705219606136 16.765937384957034 16.685406261055736 16.24475704900336 16.272696842609655 16.48679857657671 16.62980330061071 17.043067910123106 17.556265158330547 18.423433084020655 18.889327806658525 17.984093635412776 17.37318449703745 17.901803700430044 18.977132526527054 18.821464028740177 18.282113053479524 17.68486053799728 16.695198956885214 16.68097227363834 16.434705764278828 16.754881101050533 17.39277723296263 17.80560928860685 16.7115370630196 15.739051376016894 16.23861786503943 17.588363569494145 19.178972275678163 19.818173848411814 19.891196141667447 19.283458398249085 19.428346334130378 19.5689970975446 18.521481794628436 17.16658480200517 15.560385824079054 14.66056011351693 15.11152529587978 15.726106374853003 16.216949711152203 16.745756101161827 17.105367531832844 17.217629969192323 17.372288168462372 16.68900167402765 16.225018031481593 16.882233307105846 18.715091433845302 19.80879296721543 18.843536292451954 16.30732833424304 14.415170491747055 14.542894346034782 16.349155969633056 18.048774781325488 18.172133150627552 17.131887706234995 16.395222522535278 16.89334483934467 17.312607423517154 17.705961239965536 17.848584290631056 18.016729190746194 17.453280864573312 16.370876456858436 16.59143222758218 16.486807483212722 16.9021118817814 18.26426214548656 18.37503104795682 16.30831638434239 15.39511654980627 15.72389953622251 16.035190628877526 16.97871348382551 17.872077506757996 18.127963927444085 18.537732038756626 18.874306575760258 19.012357076851575 19.494756806388082 20.31352775698879 20.57919355181017 20.048512759503545 19.56178491576097 19.375441346547536 19.10454277003506 18.99562001874932 19.21513971273698 18.84463996535165 17.400591808189 16.542235942532628 16.655482466952986 16.737000438021937 16.12363691777755 15.690032044157862 17.27309799257694 20.148386841268916 21.714197287502902 21.67655507177277 21.503172538459527 21.495411385539175 21.307761752822 20.257411911933207 18.99709768451551 18.444407041654483 18.084806483375814 17.961282419438835 17.991061773860977 18.54107689904822 19.064669924759666 19.329794791303517 18.91863131870061 17.48024390889903 15.703469990732426 14.955263390791496 15.332303561748 16.218801683288028 16.576149422604164 16.945359261455906 17.2320058985313 17.618389389565245 17.655609976102536 17.16867906462134 16.96731387672148 17.08278908171421 16.242401692195674 15.49396116182024 15.965563667481659 16.95285894415212 17.72773767452439 18.07378315184947 17.258946655748613 15.902604425456792 15.302207841085405 16.52395548909942 17.630007314118288 18.181459095985677 19.373253008202635 20.111036248613456 20.674888535860756 20.69724449735443 19.810136002854907 17.82631024186971 16.82184498984828 17.605312533403914 18.51187784788587 18.82037354301414 19.36699615803448 19.777461432782108 19.45463135473961 17.900268528919792 16.077440209651567 15.446936644187556 15.796225300069489 16.50226344631234 17.130956842276678 17.727959952025923 17.567151036729634 17.001446069695973 17.019057877200414 17.34674001865182 17.524233729808746 16.592104795205287 15.311677457681718 15.033403668583535 15.905482992588487 16.68525270067632 17.034404911374416 16.679777444365307 16.80364789185797 17.370988950489487 17.157778274085114 16.46544575088067 16.648287101441134 17.286451079521605 18.41552605696799 18.965984116585663 18.959530779683305 18.460552117643342 17.470456333010322 17.021460697351998 17.543655991421456 18.030957486172266 18.515151458575012 17.902519026343356 16.702063348404344 16.695063879596237 18.302188733817758 19.33030412251808 18.44825183771083 16.804724300477165 16.026751432490965 15.501932622171964 15.329765047349818 16.028587417397823 16.76429639570697 17.268851526264186 17.206590791665153 16.268793214896434 15.910444309332254 16.56475279949919 16.901954883492436 16.599985771691316 16.09100647085477 16.085977078713825 16.493252315488654 17.02837648445778 17.801227145032033 18.221472606817976 17.216458064555688 16.755187336328447 17.685319158027994 19.032668935302556 19.322689380651255 18.75601551838695 17.708920968682484 16.633185706591217 16.392309370350063 16.036977405330504 16.632186859571274 17.317171071992227 17.941646052577205 17.421266245441764 16.558188567813442 16.440416035982263 16.645734550213223 17.68242649381077 18.36347619691055 18.843414625576383 19.00881168124609 20.0919646497517 20.44861458579037 18.962994532095845 17.6994865612582 16.45062384016745 15.567572420068291 16.454068009883432 17.7324772901303 17.84917466245064 16.857293030245117 16.273925652105756 16.274769690132775 16.49321920527906 16.272960003884947 16.082406020552778 16.719137182782184 18.669627180298356 19.440427520415444 18.61316964493018 16.88119261350537 15.197306155113939 15.000451986854488 16.368984839273832 17.50372379968922 17.658953271848382 16.778478155998453 16.659769483253665 17.345789423642536 17.484787825769008 17.630639232736574 17.80853168196001 17.50920412428829 16.73218049485242 16.93321360319112 18.236871950358655 18.67399106438691 18.82925630233906 19.42463818385662 19.023455520342168 16.87670152929523 15.852579199016569 15.580068609556237 15.245419539928232 16.081847535306053 17.09323414684402 17.455523961875592 18.287352987655797 18.683800842578762 18.398100651466773 18.476611033786792 19.359320058515635 19.996108327752733 19.636518363645138 19.04280686307043 19.227565359061366 19.606964295516004 20.116365799048808 20.111234700600512 18.876295018548163 17.43363930380353 17.00072282667715 17.515177265696888 17.317106111844023 16.472426319233197 16.155575605137354 17.694482101847854 19.725959700833428 20.74755031393642 20.868884690079767 21.07820497825056 20.929792970435177 20.372145971560027 18.951142942452798 17.8652174647683 18.15089688937717 18.57274009337763 18.083006588394284 17.698552797325206 18.028898731269944 18.590593444977735 19.438164814879062 18.96366752710129 16.7308212328132 14.91811028469193 15.001253626494941 16.08345694510802 16.832528027972273 16.919195824008803 17.2842614221623 17.56187665199257 17.555950220171734 17.355989014496892 16.873074382438592 16.20745771808505 16.057303832527236 15.63732467109507 15.81430704630719 16.60444938415728 17.231918490883274 17.78427787768586 18.022294708328168 17.181661018395502 15.767526017751623 15.438784264963761 16.824947191225803 18.362540572937395 19.208448671190535 19.948644857979104 19.995811460935446 19.894251970527616 19.528613708390083 18.787362772239597 17.35029065682154 17.16998422875481 18.305220062000917 18.99449072862209 19.297029985689573 19.826931280825637 19.335758353944954 18.17087579744157 16.889039726550035 16.3499754020708 16.573788682643027 16.66462502539893 16.9700864890173 17.48441108806643 18.144936951136604 17.88761713688204 17.30573079007822 17.375454192887993 17.76253241034258 17.71003822946598 16.839991980871133 16.02692773613967 16.10690599561665 16.718691802372945 16.768374721469378 16.51374045221118 15.55486325227269 15.52762075111385 16.740692545234328 17.83954855507132 18.131634977936688 18.21797486445741 18.27710512186552 18.58727656496654 18.88208210413985 19.343448503030164 19.0836087031062 18.102691362629916 17.313743190107047 17.551171368336323 18.25560793150305 18.41382712467447 17.36704907619057 15.806042996013105 15.666912621452033 17.43849039270267 18.525941283204133 17.870475192199294 16.566160291265835 15.914913987557775 15.786992496372084 16.110244361212043 16.837643704010073 17.20142448408831 17.762615350606406 17.511878169818917 16.48507150728068 16.158928887897503 16.568175184837745 17.161420065672356 16.744788275892777 16.17536652829015 16.14736509936327 16.34817936600596 16.947351586948976 17.725980588127193 18.118208343928067 17.371451406011037 17.259948238880185 18.229126088805717 18.92975665344596 19.094796523703877 18.875814919188336 17.94414304349283 16.950535431189333 16.450367209350297 15.85837658562575 16.501588622069843 17.261618814032975 17.642326677999094 17.576172670500622 17.329931162698024 17.151682254478136 16.765210748733455 17.15126144222685 17.39375733649755 17.82244959086024 18.40326857394462 19.926981752963016 20.73041904556615 19.759380103917543 18.920005465672176 17.695363400006492 16.537014112108718 17.195811521734676 18.400357181596657 18.117422809609657 16.480468441031363 15.789892667900471 15.905815365575062 16.18569549854974 16.337091028758753 16.115049179324558 16.594434261000348 18.28826395383204 18.65578049413979 18.279183961270565 17.43426009675401 16.327013116432433 15.976319612327949 16.98003302296668 18.023116673396153 18.551990730525418 17.56877211905954 16.813599742305954 16.635545365721928 16.212705793413686 16.42603977218979 17.03882150193278 16.543280137186745 16.08058250452364 17.216282389731756 19.030727947977493 19.9186205159247 19.86817854064672 19.65888218891501 18.70490623277214 16.677131651306965 15.855058324571983 15.53470663341649 14.986629727118258 15.838964801799134 16.825000963049305 16.922866067047625 17.628815530363894 18.037458046938394 17.45830087666939 17.049113700832837 17.88586422689316 18.750274695182682 18.4352567353401 17.564476336089218 17.95932091370625 19.158390438023137 20.476427862068554 21.009470750741908 19.891562278385134 18.574393286998298 17.916754853999855 17.796270224873698 16.920196884645645 16.37758603677287 16.670058736645217 18.113221784103825 19.478899754050495 20.189535918954924 20.36008731938657 20.016953435683472 19.166371874351366 18.344278438728427 17.028316765384474 16.381732273782752 17.456801348790957 18.519479115556276 17.88040582207196 17.786138273250494 18.261514334309613 18.641622680540454 19.077749190907454 18.487015563736133 16.490361213409578 14.902968425871897 15.192858079851142 16.103512056669548 16.698586984041466 16.79080173008906 16.839207540212445 16.6713357107527 16.563876185497097 16.73752225421131 16.375431408443443 15.169554549627152 14.804562251111763 14.93813970253791 15.632862905440916 16.45990641003755 16.46432146856816 16.49545584307446 16.7293858990954 16.44494385588361 15.637909833399602 15.863269486124182 17.299578520845284 18.941756029324313 19.461864896187183 19.42783342862741 18.94377423576724 18.658257858143777 18.247973744023266 17.93397154501069 17.40210269399955 17.619962205262453 18.369686992901606 18.510135834776694 18.512585073735973 18.588534513657702 17.285051201804894 16.109193361613617 16.04788757408806 16.805473700988742 16.98200859431008 16.45863948301592 16.54863440503768 17.19967762082559 17.877274615951336 17.579902868739797 16.865294882698134 16.876088949640756 17.247551792410835 17.212306442790943 16.577237173446917 16.290005399343528 17.28693998930129 17.953996945784493 17.42587682324422 16.45526683390424 14.712875729402443 14.061578644575736 15.185200220392586 16.939667448939723 17.9737868379408 17.986220957390398 18.08410706737342 18.60767926166259 19.283795755600824 20.243169755169905 20.137279979558016 19.19402976229995 18.503377934938708 18.47169391691553 18.90097170818774 18.9046485580713 17.714210384795752 15.579567179103265 14.592893011666424 15.928155272274488 17.333070884829255 17.731604643254407 17.42277143068969 16.8655172413917 16.811376853079786 17.220206842658563 17.446797967764528 17.292602413546746 17.728761648716198 17.60185139722123 17.246537134091437 17.062552036287926 16.669680361412276 16.675055399693164 16.271001999862996 16.087402854857036 15.845055055689164 15.716633977146422 16.33715610678962 17.631604859938356 18.300671680542177 17.94452550103024 17.90120366261586 18.391359739783137 18.164731047634415 17.61520410208589 17.452533776329993 16.830835195962898 16.541340425934912 16.75938280490958 16.481364101836327 16.821695683929622 17.336460129210106 17.61909606197519 17.799699719412295 17.584966478734685 16.976527123464578 16.457176993611274 16.66746842380991 16.851662174956882 17.460379574718846 18.418379067693422 19.690034555128108 20.14190858646248 19.46654035667744 18.94297282330239 17.770733098426525 16.900803986996774 17.372062398306287 18.207180704574565 17.868645235977684 16.641962038691666 16.271437602333904 16.238389844352394 16.24167173133819 16.509836612836956 15.876066096980114 15.651581234972344 16.66988394902899 16.911179051054933 17.34595809750505 17.362429650162404 16.77488876090907 16.488503696974753 17.36795670697861 18.65767042863588 19.71357911133476 18.879751116105552 17.176699940386154 15.89509416108425 14.722789591107112 15.158687558032671 16.463622768778308 16.245869596921157 15.94166