# vtk DataFile Version 2.0
Ocean Simulation Step
ASCII
DATASET STRUCTURED_POINTS
DIMENSIONS 200 200 1
ORIGIN 0 0 0
SPACING 1 1 1
POINT_DATA 40000
SCALARS Temperature float 1
LOOKUP_TABLE default
14.295464398240094 13.506850395272336 14.493073228932133 15.685927762657132 15.61280418447169 15.37125908494642 14.839201988627174 15.88998114711334 17.529113016860983 16.741342519257987 15.527866651757583 15.36903016073125 16.5785419567878 17.74184757807581 18.118322479842448 18.838426889384902 18.70973595464143 18.95512560866612 19.923209705593457 20.489882304686205 19.110923848558404 16.519508067583804 14.339458149778878 13.720223244346661 14.154270335151699 14.555380621083025 14.8078741797145 15.125297498253591 17.216789452636014 19.122527598830604 19.035531758537097 18.222048260426188 18.93863995828466 19.965666563643726 19.886183578019335 18.473547057253466 17.73899513600787 19.146080405349945 19.153426783201205 19.65396440489673 19.931658712901108 20.19037203031826 19.701385022557552 19.04280629749428 19.784181466149196 20.002612649361975 18.15530994608712 16.47483631715745 16.18820760963096 16.169110527384767 17.16887570769644 17.896718774031587 18.351921048934027 19.283988586821835 19.86821946690339 20.217386037094577 18.41547160312973 16.141069287799212 15.196879083595944 14.578494599254968 15.956273829384891 19.140650340336474 20.53474609128087 20.070381923064637 18.62521381366795 17.979682021318077 18.56310910262574 17.24634705435768 15.500624723031569 14.745739439206638 15.8868888631328 18.46925578339572 19.807095274293342 19.709539063172205 18.91795616273076 18.264578748855975 18.509817610055578 18.582927594063673 18.14380412659634 18.179599851599978 17.034771358371838 15.908474320933978 16.125210347602223 16.997325224506607 16.556537691994816 14.446949372102207 13.858965625345672 15.612829165467994 16.565714033627213 17.054092008740337 17.192937541410757 15.922569616751204 14.29478225752876 13.673899515685216 14.201572336291328 13.855717464121135 13.575757759029289 13.662471699420749 15.163777810168899 15.933248359330312 16.65038279731639 17.676573363232237 16.968690707036785 15.673476493031062 14.268760608933142 14.614232061647803 16.674250373518166 18.397181438378052 18.629068447322094 18.90321274999163 18.65262133689139 17.105614591413055 17.49101650284526 17.05156998688575 16.049312803265117 16.80435165498744 16.046355419216294 15.6072201425918 15.804334143204365 15.88134565973962 15.364578090084493 14.302947069554968 14.679721057546901 16.582927440411975 18.070451218777357 17.45021662715873 17.008447895746546 16.565398287229485 17.27303807637791 18.256917414588138 17.978937887992853 16.912606815619277 16.65937992432192 17.87824344538474 19.85430045760063 19.883601684930365 19.037180587517856 17.974782145473778 16.54198105967142 15.440426247489018 15.32286449918079 16.73985336031879 18.83266570619608 19.077208502221225 17.754438393265808 16.962446512292388 18.59912896486401 19.44344254196768 19.13867536239224 18.7547565164505 19.71671344032142 20.294698260331963 20.025191589794055 17.618248263441263 16.414776655487394 17.02810792025807 17.797330389316958 17.543374400169505 16.66596927587508 16.0293353109002 16.29048227176667 16.818444433440842 17.15146048798248 18.661377220469173 19.469558849793064 18.446228656030875 16.626928361350934 15.581621500562711 16.406195667868268 17.459669103689215 19.218262686584673 19.42845016825798 19.094996908409563 19.47992933960384 19.81135018965806 18.799712789221882 18.289306475661245 17.72615213468465 17.591074288694763 19.09097265163096 19.960707024533022 20.1200050651676 17.947031649482597 16.365992875290782 16.124438814625698 17.14188629068727 17.679052067818073 18.323497209278575 17.65719364384302 16.676531118754355 15.282088008748202 14.857857723234538 16.074795933566463 16.515833941477 16.969655161070737 16.789188184433588 17.54536674463068 18.12637304672507 18.254083063056402 16.753315396189354 14.91845711359238 14.262761831599994 15.80911990218477 17.439707543721358 17.557164100693747 17.287725390702374 16.22643454547982 16.941977297566417 18.09499411439149 16.934699836962473 15.853132773958759 15.853111293726824 16.65742855816145 16.855347896267265 16.9230108710918 18.52322642281575 18.848565486905887 18.8998219845829 19.85265974512534 21.157804871345416 20.13674127432852 17.035242981704474 14.514972406084784 13.560682202424177 14.141563038337422 15.283749978381707 15.304004235398033 14.840351829147396 15.306125742875523 16.418882906010634 17.201657266611136 17.76817748320932 19.754972297783354 21.67620423422511 21.835945397982215 20.49904541817895 18.847737232994053 19.837291755833597 20.17526566803874 20.468221415581713 20.100205241348384 20.302187281515355 20.75719003092618 20.554886878595465 20.255209907385098 19.245163522330987 16.99945829175649 16.02709601963561 16.743034157637652 17.19974169734587 18.089887952252408 19.244434378172535 19.932235426651275 20.299618407511584 19.321204161761347 18.979443365391376 17.814281163944486 16.37833778484876 15.501768243121168 15.091132537641238 16.397475091248253 18.78665092035993 19.43194372633671 18.130724773658965 16.761074197455834 16.5666790369908 17.22456191860461 16.136679290968427 15.182817705125913 15.041980900206504 16.650959064839096 19.45150196625385 20.197516426490086 20.333400711301632 20.462011630984076 20.57326373349248 20.897677443113913 20.59035941736854 20.182389034843226 19.85187041853275 18.848448992770468 17.44719117505561 17.01931311252825 16.577213029915853 15.48001368969333 14.036148822441989 14.248274954556384 15.637684186420616 16.200104053434305 16.919055644067445 17.16921575373453 16.7925944387366 15.419672586786632 14.974818457272114 16.195745062660045 16.19561141058093 15.66472485043021 14.464259474781823 14.858135592115925 14.696741528737247 15.646884017616353 17.150249450719446 16.7376768619884 15.823749860170935 14.926095156180713 15.460337059825044 17.361504234727327 19.736040771102974 19.961062785645627 19.70498627695177 19.86300962556109 18.71982881645863 18.222447856813204 16.632475941767208 15.117448635338103 15.997290096910056 15.99296959089125 15.901740440242284 16.213708783756083 16.53273029364067 15.851353940534127 14.164448314695466 13.248862215484088 15.039490924105698 18.184722433133803 19.128204034517253 18.475158132044566 16.71888861230412 16.43555138585234 17.187027291892043 16.67315429211843 15.994280581875113 15.940519449728537 16.573323879258268 18.499544922506598 18.995600136556405 18.526314113349695 16.584909339490476 14.614946817292752 14.203904942696456 15.878919130718009 18.07639267628503 19.7850251212027 19.30677040883311 17.792291689691695 17.85312284090981 19.636369068553083 19.621373866454366 18.538832624053093 18.261117266634916 19.093233222086386 19.405540871611226 18.97624637482061 16.59495715487014 15.77755243153607 16.529936909014058 17.974406234699693 18.761897548967674 18.28714628504221 17.94463976362838 17.88547823053443 17.317824703159758 16.981834106816567 17.78433499390522 18.7515722645654 18.402991168908862 16.643147380167978 15.125016382952126 15.841288009497914 17.613842574328512 19.483872824761885 18.862166553827343 18.061978306591634 18.296224164356417 17.797222650036424 16.53923575886855 17.08188197412537 17.9401256262924 18.325733206537393 18.88040320524433 19.03938672818456 19.35946278172702 18.66972808358055 17.690608352579268 17.047220996731518 16.524424804267618 15.496453199448075 15.946626783492999 16.252076767840137 16.3840996020774 15.953085155134193 15.86938837256653 16.828571793021027 16.689032611901283 16.875790875418367 16.668574784519116 16.61437018251845 16.478983312050435 17.275180322691476 16.659920587357544 16.55256675295174 15.821272184775406 16.821758129701607 18.07506012182752 18.214206978674394 17.652161749838672 16.086002402463038 17.00483729528933 18.479509854514017 17.75119771063755 17.02784774912977 17.15384673303712 17.12655718811391 16.012534458753205 15.368902072225021 16.444832542684626 17.042576539570724 17.913942795740756 19.260367694826137 20.54581551055972 20.062954538227693 17.544936148662785 15.053724454775242 13.963595826565744 15.013898442833195 16.513846944414535 16.085994660679336 15.10926667711475 14.254448868800269 14.52143246181941 15.704692332969485 16.679008308367774 18.916883641836076 21.7282895057535 22.807006016519153 22.072231998490267 20.26552266426592 20.73388086541285 21.172401479160694 20.79528678073992 19.846290356449195 19.093970553194435 19.191347304302568 19.459249954830586 19.25280005689094 18.511244358813688 16.733699292563763 15.726593298869513 16.761155629986074 17.78750885373356 17.976281707956733 18.659561627668914 19.04525094029821 19.209672475119856 18.043201695565877 17.7833579736781 17.26011212238186 16.408701782427826 15.33468397949185 14.45337172856109 14.827562588361703 16.12900197241367 16.818181716487402 15.810009116380353 15.696556321065318 16.838118587053472 17.90196877445561 16.924019550420823 16.144220923366937 15.77885471786506 16.385885373428962 18.686219033199606 18.740938776773337 18.40473630748292 19.204875763727657 20.13598040867516 20.945388908365683 20.904363772168008 20.347281326874143 19.574553618973148 18.837531965804846 18.143800326173086 17.9640829698518 16.711820037322415 15.395393030408465 15.124256681432243 16.235523249478426 16.860710412578158 16.983834334990075 17.48720567588758 17.340968341339913 17.733507621781868 17.26058567951146 16.848915440187483 17.29989994424741 16.60469563979995 16.113015427755307 15.123427472922748 15.405954286942256 14.649630148817955 14.950423898690065 15.730764694504037 15.92367307859173 16.474729284520308 16.95073977812376 17.76395154765249 18.960411217812982 20.570401686047727 19.82263282639936 18.635972136625668 19.27725755591141 18.981714964457918 18.64161000179141 17.13815341962665 15.32884354487687 16.07854604257258 17.292839146714645 17.37007555715668 17.71481046012768 17.83092807760072 16.92672806941226 15.197959226740096 13.512527486566206 14.872538604350623 18.259741385595664 20.129640092907977 19.562252793712567 17.989245537611925 17.33053125510918 17.385970049912313 16.981575032735456 16.65795641185131 16.483424474523673 16.015039426897914 17.186803673470028 17.685193469302067 17.30054228544426 15.5998068731202 13.92996521020564 14.62475680592004 17.46936805699612 19.093972686037045 19.555297386696488 18.570369154887306 18.08222915097465 19.164353058124256 19.983243042463567 19.27915027271542 18.518187239259646 18.339939610394648 17.643932978412792 17.48718838269826 17.486878582682532 16.062555404158317 16.03803356355437 16.26347166416275 17.5809589280274 19.342914221645408 19.40614203032317 18.346722917694393 18.03184010540601 18.200300021112227 18.82341921511167 19.284577724605366 19.562152503596042 19.279188135883444 17.908655685259703 16.2509175640559 17.001425655205214 18.71593547694149 19.427319220185662 17.476031306986606 15.904808192071002 15.560875534224325 14.379116034370586 13.604715118832512 14.995088670060474 16.607649500568833 17.070850932417358 16.98871542582965 16.22617749523863 16.578891024979203 17.5592228115389 18.202831628668083 18.47681946204302 17.575141495637833 15.212292266791918 15.10227111157466 16.053919401355692 17.528002604110256 18.235935520801306 18.02853809648944 17.73399889830304 16.30304667839974 15.963063204180663 16.043298492772113 15.987817690650374 15.822734341528992 16.924400242408453 17.040709067493324 16.90516467254525 16.02687834248634 16.56925395547195 17.620018386978384 18.218330264341553 17.09856270147674 14.714160092614037 15.246031563471059 17.212960178542975 17.58158122263441 18.15603940777047 18.650285581943358 18.248760594212705 16.748796198174 15.666772083730825 15.793219027602449 16.438694230333063 17.641468359741467 18.913163314247868 19.53504466385661 19.295026981689197 17.718370456856917 15.66024302269342 14.872944177118507 16.32737398413557 18.15648613355289 17.138897554754486 15.453805855438809 14.406864015470735 14.727477240577356 15.961645216688511 16.266917127483023 18.17854293917527 21.463618094011476 22.973591602988286 22.667127488554577 21.355878193528532 21.481783309590647 21.28299414475553 20.1790410070696 19.219870826410855 18.27720583679365 17.537540119620346 17.865482761029707 18.22153309976456 18.390674496991732 17.637669424106555 16.50267825656625 17.207151885909695 18.82964083111538 18.60591290429044 18.131105053219514 17.36666558467573 17.04303385956309 16.23961506690941 16.570235235357753 16.675133101467583 16.687323158565192 15.753749787938057 14.28471848980054 14.093166208133379 15.008651749961832 15.611183142361174 14.633550609234836 14.909707526240695 16.351158398730952 17.7288168780964 17.466430772677317 16.458435372103647 15.803426571119681 15.666252420422794 17.477768658171026 17.492887843396797 16.922441545352072 17.989484653576604 18.860598003410516 19.670801737666412 19.790861846001103 19.032248603361325 17.930445150864976 17.10543218434661 17.444330128907183 18.070796936509165 17.272682693785686 16.60127377154566 17.40422108264918 18.729422152554083 17.985177291118276 16.62738895571609 16.36245035655623 16.461656251430263 17.524691305634143 18.036342591606978 17.912802440109772 17.2594983994455 15.98288419927749 15.71317238597508 15.848768012645769 16.833707897549115 16.092342760431723 15.338192622017985 14.990337015082876 15.343312964573522 16.46885238786848 17.770825216435295 18.250052514597265 18.594665390630905 19.366821933095938 18.07448558188349 16.381958821373694 16.88900980542294 16.789089383912327 17.383224260022775 17.253758992704384 16.334005401921413 16.87296404266422 17.486536494314986 17.11926313864062 17.901079430750492 18.07028795722568 17.60587457230391 15.900455256378581 14.442206105537336 16.054516212810142 19.32271581245695 21.10237895804256 20.546428586539026 19.026379861540494 18.303053510689725 17.89009134974399 17.739519027787196 17.990762513918675 17.929195689394682 17.21444210730948 18.057762811688974 18.26490723848413 17.397783868887664 16.56212477613209 15.199161069940383 15.867648051962595 17.715688519706557 18.153006658099578 18.113078719823225 17.769701996706594 18.434405303489704 19.514564133218975 18.99431099764357 18.23677635932438 18.18279346573715 18.70657358007272 17.562584121974144 17.190858136609098 17.486296125309924 16.48294131541433 16.785365292479085 16.67509639566203 17.48356352418453 18.863217395125716 18.952138207898717 16.981169076091113 16.013742964363093 16.89363628269129 18.9142811204165 20.315065393729096 20.460312045311795 20.3245738054246 19.021097648682478 17.969678504246758 18.51050105710575 19.094560945903723 18.484667409935103 16.057258474727682 14.632973524396181 14.434823904655376 13.75058782860862 13.891072595597175 15.716553672616627 17.241299135706328 17.34200407779526 17.278324594553247 15.963400898840918 15.764434815386219 16.944881541855448 18.576884211693407 19.76977097652012 18.704576504685942 15.424922897300126 13.990093424507982 14.681050226059202 17.0119216957786 19.23156074265523 19.47811696964779 18.275202417166348 16.167771548302056 15.925135415289756 16.466572249220526 16.973441808477908 16.900515477393412 17.62569795388965 17.599050898825478 16.279945715943388 15.527699987569703 15.421031035089559 16.23755876871767 18.09606757935594 17.83488859059374 14.942569072016065 14.35212102931145 15.703712988759012 16.374790018252618 17.37882050046724 18.078453262983775 18.086452430870633 17.90645946699615 17.78870028469109 17.77320428047649 18.339785313320114 19.45314637873093 19.755232614042395 18.996299921602912 18.42735208886252 17.84107743388768 17.14205516090987 16.91751193944736 17.963828061803817 18.92771807350562 17.08965386498208 15.411171324088961 14.983810275673916 15.662835463844166 16.080392431012037 15.416212926976357 16.9351038607399 20.74236739465374 22.75660334371307 22.548037154536306 21.77278699253884 22.03817053541262 22.066108276867936 21.045465435181814 19.736376920949894 18.49450370461552 17.2273974886947 17.078119532938118 17.251910330842435 17.97337133252677 18.493386468609355 18.093171372795357 18.382291853616696 18.87382545040707 17.48930520756153 16.045346839106784 15.431864618886129 15.998622591424692 15.77967389292539 16.19005567930382 16.570948273913995 17.24699143744327 17.22861352024007 16.12053901725414 16.068186126286268 16.7882939495724 16.428502328400338 15.119187255558677 15.336726017894033 16.290974804686176 17.184149363577333 17.620416827569407 16.575846365353705 15.243542343190805 14.5293377451647 16.095343283115223 16.715831525724564 16.429887025114773 17.71676561282771 18.7647944583965 20.156696959965643 20.785292561806965 20.091940442508683 18.119523949713603 16.53377157094743 17.150202564429442 18.263609232238704 18.036037417704247 17.89708399578147 18.8479221296145 19.885165729416276 18.54369483519808 16.015237616500286 15.069211621184591 15.759223321649767 16.871534637958547 17.360730669630488 17.74719558759585 17.651970547214795 16.861904976450987 16.749960890972286 16.955713167699766 17.750947425407183 16.788867299948286 15.04434167030699 14.513584127587718 15.712101084443107 17.00989114884976 17.947623544452604 17.668156276475262 17.215016422093274 17.34117047599606 16.191584977085405 14.75416002782081 15.160015055629763 15.883202226769416 17.6466512242305 18.114950034008086 17.69760635987371 17.744390452432487 17.21170427711139 16.869314288082933 17.931874768176435 18.08830957302093 18.412862505294846 17.161724757892063 15.62459451611414 16.420812519613776 19.160315120181366 20.648792062133666 19.84740957691615 18.03040345471015 17.276763147108795 16.443681072188458 15.93920659630293 16.577880763623682 17.251807143313044 17.261672321174768 17.93744356244183 17.56823756058726 16.716451975211783 16.83497567069256 16.172182846920318 16.251136864436504 16.40761786436989 16.42024304229043 16.944045768125484 17.530550608018284 18.61323872982718 19.196169136387976 17.89694991331963 17.133762434790217 17.78185736652319 19.279506588071307 18.969068623339755 18.35460008587503 17.830024043798943 16.53111554352693 16.808257937089472 16.369337776719874 16.586594233754663 17.188998511234285 17.904054214731456 16.476152000873743 15.216160591213885 15.926143655634819 17.52234473021617 19.494227348023234 20.084437471477557 20.173219467554475 19.22127181219389 19.530732356603234 19.81796040704373 18.417601649994022 16.92330241075489 15.169821455261683 14.240351964611207 14.95885429567729 15.663929727156898 16.242814415488095 16.947001143741986 17.316708123280456 17.347814180172083 17.745925949584812 16.83799913968998 16.10041112689883 16.66416593837444 18.868197002324962 20.290514756328474 19.243798950882393 16.208063401120857 13.946189270028798 14.114968437333472 16.256192130455037 18.303682195329863 18.307763519265514 16.986678909686503 16.11519444303681 16.977277708399363 17.40231068869769 17.897595561520024 17.973067688382248 18.32212361961814 17.684429762124985 16.14820601538975 16.528888317952408 16.128543953606915 16.418542326946614 18.316827982309597 18.806474340074164 16.167117680100972 15.214056980521667 15.7692356899315 15.996218539745293 17.088669932449445 18.109948549223578 18.221580644503046 18.695508025693357 19.13498725795663 19.274588396094778 19.82108534702048 20.751787964572348 20.96555476574633 20.247173378523968 19.767042763069608 19.670632124005696 19.314732858723804 19.051683806538254 19.3702944239973 19.102224477496996 17.351437149549817 16.46449877108432 16.76490359799585 16.953354143262924 16.05910105273067 15.249151939289735 16.95729292205459 20.395457481523646 22.04695432157887 21.69236823926711 21.474938937913308 21.51218493857272 21.510646837717093 20.416524633960485 18.948196090330406 18.460277928529553 18.04454017535397 18.051649385160964 18.05803733705143 18.748227754261148 19.322417533851535 19.62204896165855 19.174000801166816 17.48721157771786 15.374997428383779 14.535594338909402 15.023909874602001 16.238245763674936 16.632007513775065 17.014179012977518 17.219053843885337 17.752043705701833 17.909017153200463 17.33372496734937 17.195291844393854 17.553166395984686 16.32616837520839 15.233488227702065 15.838440757031153 17.04799916867933 17.84646836872662 18.365901555049927 17.47877256310337 15.907851966465001 15.024641907343351 16.58172592890246 17.760617398443753 18.095149692501135 19.621361461150016 20.35555667022866 20.998460398014323 21.072446044766718 20.197052550093904 17.69047330399709 16.436173447260526 17.518428714515075 18.59225530410493 18.795075099701393 19.50966952641874 20.130652853328478 19.882702473507617 18.071000060756276 15.789623836303603 15.071608609519943 15.562065117484728 16.368675205634375 17.01206060972459 17.78367970509051 17.5760263665288 16.848436500866057 16.944589727043446 17.342585963442207 17.684529510278487 16.598956451650242 15.020826076037892 14.684539134394113 15.82238821074494 16.712320735427586 17.12978790629201 16.622142991127046 16.869414246900185 17.629420105726048 17.23989920649067 16.19002581649144 16.484847611464442 17.199124538115402 18.648390052629676 19.258947194868632 19.20008977719466 18.582715183652027 17.288642558596408 16.815824310555822 17.537294060686587 17.94715579062119 18.782851243069768 18.273434135351334 16.841839998000996 16.611815083476046 18.408795012692543 19.620120666095577 18.46313711929627 16.455939036782826 15.824224444137108 15.241372548219932 14.888236462857336 15.766718238233123 16.64960163558311 17.264452926386255 17.21302068032619 15.905274091388971 15.521702837191064 16.617293945919446 17.08484924158767 16.671278469952664 15.908278663773247 15.91248550212206 16.418415940539273 16.89293516686287 17.733847007101144 18.389072078083476 16.960275997126942 16.314174675004686 17.458192509641613 19.237310957035344 19.584129866317607 18.86571776113206 17.642677638479633 16.394969589197498 16.375228825295206 15.833370862654636 16.65840922228256 17.3080263987402 18.246261274425184 17.614913852485046 16.44882085158406 16.319374263870507 16.281366456883106 17.560444937285688 18.293322107917376 18.907939957734047 18.886652468967508 20.368605355650864 20.882058002216375 18.80675211199217 17.570516161561144 16.359209668706587 15.249642326950518 16.502610179205917 18.180862015007243 18.294276223150742 16.8570435619229 16.10096577395893 16.12793207661176 16.45723906333258 16.16574342467134 15.924687911604025 16.45245819188008 18.921625835837144 19.75173733749576 18.73840418175508 16.88639855279538 14.88973784580617 14.651800230461726 16.33534330808738 17.466828400245895 17.58108848084077 16.421665774335793 16.55533035268519 17.679770336634128 17.736313900793718 17.805751221965334 17.99958237890957 17.678846661548974 16.643400817986368 16.940869476107284 18.572021861895117 18.903991592206534 18.905395608685758 19.75444717930977 19.513263828860964 16.80377941974661 15.832888178887458 15.60666754971412 14.943262361241924 15.939453447965548 17.117483150867393 17.308589252518075 18.427428281048893 18.866219395649154 18.364808393150714 18.390519139998773 19.47324055798042 20.274393845276194 19.810478028650067 19.066927237545347 19.399016208722404 19.714571690828613 20.314909306091064 20.308267689308 18.70531916415503 17.04976011613446 16.738539861751097 17.753233744920124 17.618311392859777 16.47611460837097 15.821492697781894 17.633647744178166 19.859542499426365 20.798441506007258 20.74524691602501 21.255153628095883 21.209081679074817 20.72181935310157 18.9963970743274 17.685151430301982 18.20046086724368 18.842000045739216 18.132546375823402 17.498753940550273 17.860025857359812 18.403934727054978 19.756413411987655 19.381803268433057 16.54890093547407 14.458888244014569 14.828582467763557 16.308794114339825 17.081967906424985 16.910402968896904 17.426140302056314 17.84628534445783 17.7518036919437 17.421897139032573 16.92120920661446 16.152587205271825 16.16799891974491 15.543316582737638 15.812766910045536 16.784954067553826 17.426291199556907 18.07787541717475 18.43057749785804 17.391066636804364 15.569722879691252 15.086003623846878 16.776945106000447 18.496986289762805 19.347032211013488 20.26784303017241 20.173444658993844 19.999961317942866 19.593692693656575 18.8980184957715 17.025554648214587 16.931122070565625 18.532726395170794 19.23682569511011 19.446956413678457 20.303548683821404 19.73335597174347 18.328059192572855 16.69894713364688 16.156915665559463 16.760132067668533 16.836781056366075 17.103388235234053 17.55680446288674 18.430318964423485 18.04914264992308 17.33139148421587 17.481475071620746 18.01560393274991 17.982010790616922 16.93508612625781 15.994476364824735 16.001587294602995 16.752099876980985 16.701449551286185 16.580042602660605 15.350619657963342 15.348603298041668 16.93955082666342 18.277667514398953 18.485481889108247 18.559252905484634 18.45441895410079 18.615443686051204 18.735275143530806 19.355756487342592 19.11639443383592 18.001343277942645 16.96727213993481 17.293696800168824 18.2829521592318 18.496526104946653 17.275553646281928 15.429633653546981 15.342513187279152 17.70141802340447 18.90771487660302 17.90759015369589 16.255841967231895 15.661165519272048 15.603940779290546 15.987317194900243 16.972187469849313 17.220920245483125 18.01953074255287 17.70967298372647 16.249553921618162 15.910464360063617 16.49645220749055 17.491369285675464 16.877941487641653 16.089953095855872 16.18908487744531 16.366566707394885 17.02778943352939 17.774033253758624 18.274980811694316 17.182492076830197 17.057595216958763 18.36859207226748 19.1170555269217 19.371675301563485 19.282237916258346 18.209069270559738 17.002743558946346 16.444369544010748 15.487165235460415 16.434285032264732 17.330254046735185 17.662729156521824 17.58126574886818 17.405812826456334 17.38599707827594 16.712075803450904 17.197158404931148 17.28337840826191 17.68176711454467 18.08524220127335 20.03000843273935 21.190438644140396 19.894191211552812 19.20054103412112 17.919381775833845 16.30541997811094 17.177898989521893 18.79178484671841 18.432189360247786 16.176715790984428 15.471951841537248 15.763600494073623 16.15380900334627 16.39553809714206 16.0519447795089 16.521475089382996 18.773695992620492 18.941101700230547 18.45302273821836 17.59572436512282 16.340891211795864 15.827584308999183 17.027512762949154 18.076057424847225 18.79089869244045 17.41666428984324 16.682947704616776 16.703166134827626 16.153527765374882 16.367262117828147 17.224164338204613 16.41455200595328 15.767307163019966 16.97298684131009 19.166798600291358 20.166418710946957 19.961146980704623 19.809932219962327 18.873750888515964 16.330930562630403 15.651887212131223 15.490871540637599 14.565402728967209 15.67832087943521 16.92731961335396 16.846044610493614 17.8110827243674 18.254614578105507 17.348371185137644 16.652647738425955 17.740297716940784 18.80477563509895 18.35689192674935 17.159535656025025 17.77685067991916 19.26351276741058 20.82338539785884 21.444634786768944 19.878328505710922 18.38547439557074 17.784537857881404 18.0145846266236 16.90174351824185 16.259980829413802 16.479259104649522 18.18249925891827 19.683429186126165 20.36910210811026 20.529014025654927 20.20479669131684 19.226824111538022 18.461993368828374 16.849097399345084 15.959683665912753 17.421775277211637 18.855323547440015 17.68907114188541 17.529164306021766 18.04606768198729 18.385816962536236 19.152573921611893 18.741719543525036 16.385577731224444 14.517488656402094 15.159998583338659 16.340596480391223 16.96671156509281 16.84758609303498 16.922711063920957 16.67225861870052 16.48740540845178 16.866232349148387 16.52709198781237 14.824653710060042 14.423746442477443 14.62894300946868 15.579167316982888 16.599516648755536 16.32946946296082 16.340912361506845 16.766248052156282 16.54591297014855 15.451886113155124 15.673224576933366 17.24450188354307 19.176975580382127 19.558982374419855 19.46280289821956 18.79720800309546 18.56301713881205 18.03802205233678 17.80896922736897 17.13636967850694 17.49143251226702 18.46828822902344 18.486640124834608 18.501543864300253 18.88969878805423 17.151628367268117 15.781041564341592 15.882823654447431 17.036410788706224 17.31199837507259 16.483645547461048 16.545734823429434 17.214620315741527 18.127878720247953 17.668219116250206 16.677159662475248 16.753817184295727 17.241741292752668 17.161662647078796 16.34636208209806 15.965343566200112 17.353905667970924 18.168196251430015 17.398666222008778 16.470746524027504 14.354254801850798 13.586294259022 14.895378624177713 16.98720892481436 18.24881924506014 18.08997318046324 18.011722571072816 18.411131026142503 19.026881869960423 20.4254042617456 20.40007162648867 19.311582145704023 18.459668757724913 18.456509615588267 19.13249273523688 19.175611206046938 17.774886743135774 15.19088990753496 14.087036905314987 15.957894125329155 17.447592401265638 17.70301106035675 17.385520654848865 16.745336808424973 16.763802328379658 17.407945703941415 17.6586449009221 17.142226138381314 17.77944009555586 17.692545453944646 17.382558919481642 17.287026761217138 16.67043992359564 16.85361492262498 16.258240088780095 16.179828080301647 15.951674102936524 15.695210007690758 16.326887226277385 17.851052242145997 18.50601367620965 17.9021626994461 17.829756465549988 18.607596151714084 18.225085193883206 17.445700583071673 17.515340537541828 16.770456333093513 16.498796197258752 16.82733105561288 16.161260764054234 16.57307717883052 17.238151385485917 17.405141161470826 17.6951775782467 17.659838521019406 17.05639400147803 16.349019408811902 16.692282983375208 16.826922264366996 17.51144612016944 18.434688931943363 19.91671351240626 20.462216073977967 19.540558264587716 19.266291025069624 17.91236990040288 16.761054707780527 17.378218119233097 18.536225817279483 18.15640659208368 16.532253873873284 16.310229127808206 16.331869882880632 16.176077696813444 16.69564156904657 15.772504642581218 15.390624028504687 16.786207890517876 16.690898871252617 17.28078659405316 17.44662968900861 16.774845282624803 16.39541592824331 17.424595720431007 18.724313023736784 20.117134838419474 19.06800524766897 17.000048864187868 15.677530536414615 14.169480781425756 14.738088241567949 16.538630910159867 16.016483681981143 15.406795