# vtk DataFile Version 2.0
Ocean Simulation Step
ASCII
DATASET STRUCTURED_POINTS
DIMENSIONS 200 200 1
ORIGIN 0 0 0
SPACING 1 1 1
POINT_DATA 40000
SCALARS Temperature float 1
LOOKUP_TABLE default
11.067881054187522 11.586922246640823 12.8353790003138 15.7354425809743 12.698602343362666 13.671038272695807 11.826570270247656 15.547807728208959 22.10612246145255 18.612418819743162 14.913826690968616 13.119252681354455 16.31553451820633 19.751358644501224 18.229504923957577 22.018204172901946 19.00531645861384 16.46266734462731 20.31252707898415 23.479970672934527 18.380456807164215 14.75296333980379 10.355736377572061 11.083504946242368 12.521161110349546 13.203335849532984 16.42443698814825 11.994604934389157 17.879063635759014 24.025317437046635 21.95921427534673 18.900665931374075 20.168271100370486 23.561711013687873 22.71046739196299 17.606061821442605 14.465048064438472 20.69838520943412 14.69176230383801 19.627945634416047 18.738520958185518 21.848271543367126 21.763908617521068 17.053450902520677 20.116790262825354 23.637299758836335 19.45570905282268 14.182603590292283 17.219559499907778 13.225733147199062 16.4712987701035 15.772590690720294 17.82855224454668 21.03092318111254 22.1679276552615 23.80329140131217 16.301721006747798 11.731707137624571 14.415108457969469 10.831786660158672 13.004454812758146 23.183581493343986 23.79890637657801 24.676178126330655 21.59524155118336 17.372349223209977 23.234681368161198 19.887138239001082 16.30543414959456 13.563312742839566 15.61465490199 20.850043000900577 22.490469007461687 23.042068703079885 20.425823401718812 18.494380067416593 19.841927867741408 17.33918666604413 13.387371438030202 18.30743247802266 16.514729010480774 12.278017420880241 13.8404038905032 19.673465835223777 19.173074422195963 12.476281300097181 10.505493057609035 20.067320038015207 15.753600135718225 14.233788991924568 19.331618196189023 14.105860986262936 11.264278985795848 9.979559565227884 13.064889830350321 11.350581147726768 12.425502370721913 10.736290860642784 15.097904026590195 16.535821060061366 14.230066340663281 21.31736078607511 17.950178161212644 16.591077817340004 12.280673585894817 11.284195892825913 14.138061916435403 16.567656395153076 15.886111500859393 21.88774744415911 21.54802683156161 12.470695916841944 17.779375180278528 17.40427167233803 11.78350927774682 18.719204412869576 12.114473500127959 12.64753515743508 16.53503068972323 13.87036258612037 17.900020505496823 14.034235485444228 13.42142249356705 17.893773195594854 21.096009969712732 14.117034093178042 18.22297550980726 13.075783792519612 17.41870368476038 20.889193136641115 20.54753060532579 19.015999277682607 16.199698092498032 19.534233995917766 24.986166242970455 22.53749661743949 19.25596521144382 21.183225412420402 19.565051371628346 17.082458194783836 13.001749470359139 14.374027321166574 17.838324006521173 22.4228554002064 18.749065534223046 11.795202314468032 18.695961740913095 22.049795903866798 18.58748530637567 14.403520192047802 23.089983318816955 22.266325067926 23.135968817047722 15.675868574897505 15.744250858359312 16.18892568492052 18.725331526522023 15.704874708721348 15.90102949263208 12.667735148367857 13.71456501576569 15.822917044188031 12.120901856222389 18.762620633874704 22.886788528757833 19.849311330395732 17.09896662565631 14.40479102840829 17.652779856478016 16.59785318335759 22.582185482535596 20.901013802732535 18.829633808456823 19.01811757645688 23.23950878561862 19.343911353214015 20.792491488380207 15.511887614062266 13.215650953688531 21.375742580494936 20.54967433581929 24.044235853445894 14.371305930710527 11.962220232490118 13.547624405032552 20.64467627987825 20.42151486305688 22.606684844246068 19.714419177837115 17.023562189056605 12.927273566099359 12.74320095119563 18.252074280555803 14.976303926596067 17.509788852614086 13.419416920160309 20.65311222773151 18.738808124566564 19.527436106888587 18.67096737446614 11.7888330003291 10.482710848739057 16.839115865797393 20.912621158984532 18.90237610558594 20.83591432595638 16.412441443678638 16.219083781879394 19.956063395138028 13.828671064508889 14.850874052951559 14.273705110883272 17.46869830771776 18.082363623229913 13.713923040419797 23.211010618809258 22.229040728100152 19.05078786869017 18.070544449339604 25.06769044600504 24.038901768874872 15.719473736809 13.96461041750764 13.366334781324806 12.251409863362053 17.069190214961218 16.07262936124496 13.279513139438729 13.987318000405866 15.504598582867217 17.230584355711393 15.784501573475858 22.373698629188635 24.57906458716017 22.26389180661533 22.44681431875515 14.23005698205812 22.53563793470964 19.236532104737375 22.748176687606414 18.411525259859992 21.135784953713248 24.88965080068329 23.341391631047745 22.37289914452804 20.13958848463509 13.065043505724567 15.496558280891515 18.86985824693038 16.736370468939885 19.91883192630244 23.100469882018828 22.254625861042296 24.430178457112433 16.419273533192495 19.212464660823475 18.269127187741805 17.23089283741853 16.653623917043724 15.268868496526066 18.029758849161986 23.811839079865756 22.00015805258876 17.65634069097971 13.78323206449816 12.052495963161732 15.848627322641333 12.649575531737916 12.912773402023403 12.187682563040639 16.971510003237277 23.84541604114356 20.51924957959129 22.986987034219716 23.404338994926956 22.34986665839197 23.675624687800063 21.13208592455928 22.70108866293717 22.41703528233833 21.52612754820342 17.378609657617908 16.83670350379952 16.172311435237148 15.709776323399728 11.53200299615434 11.49856886660449 15.731364763696396 13.34885520916882 16.50573983500501 16.943326929771718 18.998724369560453 13.615951965144445 12.124101938391718 19.579285124976877 19.13475086627354 19.682112449948658 11.985500979694244 16.258246694511058 11.681932669499757 14.810733783214424 21.643244554623625 17.262780851393227 14.808503014228986 11.653347600453863 12.94386415496062 14.798751241785062 23.690842047988074 21.885849113366536 19.90429500520201 23.11794519143811 18.09378316303257 19.997493189728893 14.983942242356601 11.39700712130497 19.36154519707425 13.26375481789309 14.874936241752401 13.777866917418157 17.09929027859432 16.596970002676176 11.534880178893044 9.165587687398554 11.270205240666737 22.229578277167178 20.955898622607855 21.898102658438347 13.475977511867976 12.303805455378118 18.856362405440244 13.645651298846277 13.473536434753928 14.608623491304737 13.65612682095252 20.66147331543398 19.081757591024992 22.307611276569553 15.496606484793638 12.191299434135969 10.124025076993009 13.636258354673927 18.41981274639455 23.794924190800124 21.91248644991652 15.257867183308269 14.26601076735543 23.704723268120716 21.22328504926484 16.244942712822294 15.617078876843701 22.323312722909595 20.10090726648972 22.768831065993425 14.289149701263522 12.678245460728412 16.483307056571718 20.32923192057706 21.204597057279827 16.27127407385786 20.5203797787295 21.651170699507094 16.051877183768806 13.28853366127615 14.519083160490492 17.844836864425897 19.8712629715383 14.269695622081326 12.061657709323983 13.099249957022831 14.618090517740766 22.637965884629757 18.885205912610473 17.769336851858668 21.382022067345552 21.730881310113965 14.401394295292297 18.401145727488917 21.755063234462803 21.93017026334582 20.921388699322232 21.318997905675584 23.07334818025594 22.128177286899536 19.201721986036176 16.814805361762588 14.199496231644181 10.58443444774799 13.872260850346281 14.163322526968713 14.712569572251663 13.919966675833031 12.979105360274898 18.59800596304831 16.700348287715325 19.381139466284466 17.866749638639973 17.0188937859584 13.120457258600895 18.682204773986122 18.27967857026846 20.680213348752186 15.472238547223903 17.388560972815625 19.629462945095923 16.933245142568104 21.2389597334515 13.825723891841289 19.610240619758216 22.58868302023917 19.309829534656306 14.42723025579887 16.678180220780924 17.4522223182608 13.49726472588129 11.884382401122245 16.989689608225042 14.396429504645766 17.948270153186556 18.9734187459198 21.737974925127727 22.04096626653769 17.020884430914855 15.067236026567386 11.539127438415054 15.110415633241814 17.46510847942701 14.211256612500266 16.974117294567666 11.976253087173871 11.497573836240711 13.941313892683906 15.30846211212615 16.786632291844356 22.606939861081226 24.783799479435572 25.05042969646597 17.363272185075044 20.11500462295955 24.088650786599636 23.165911669684228 21.47361506607039 16.024103575850106 19.05916833188257 20.433717333589463 18.291966037214223 18.90529246391358 15.162082959892219 12.087755890157416 18.006746990199407 18.13157667457151 13.81676444940939 17.324922910745233 18.51699323594669 22.94516300521393 17.711004646348172 18.018868730838076 18.14854500307131 15.7473177485161 14.384171480786131 13.875899185672557 13.911312920875291 13.92321599081106 17.70339748444726 13.410654433435855 15.387259175103123 19.366973023237858 22.596420951185607 15.319687034661294 18.37538411711169 16.568914700692098 12.8779054974588 22.097617351474025 17.703173619475983 15.7096421712326 17.929693409080596 20.595650960580404 23.432741147790157 23.021879738995302 22.960357179287264 19.996018708927107 21.668343430111737 17.908926595225974 21.32188966811448 16.081417364197744 13.091661407821494 11.929672962659867 16.73060929844784 17.31534732115545 18.237400047220735 22.007895253525827 16.304351533109323 20.448935505562662 18.280021614895077 14.718332057962646 21.29530673676041 15.996802412426593 19.397142832713616 12.567023884459516 16.683351187363726 10.889058045694838 13.270672832376595 15.224240560708013 14.646800702846887 19.272558900361467 17.60053976289106 20.732058772666885 19.73906039256651 24.771283062295616 21.132982455186166 16.141348204299824 21.96589992800236 22.362649946379953 22.48963112859047 19.17083788012943 11.357098927108131 13.030643376720954 21.789164182878757 19.87567726363239 19.198616347718982 20.64426096256557 16.40392838199703 18.903945921324784 10.670338291052955 11.162637457594522 16.938578589856146 22.52249468257641 18.455924661728552 17.821133851176626 16.719245149286817 17.264619801532163 16.228006986941754 14.617235936958764 17.126480205487574 11.477910558599795 15.32276731389019 14.349118169372069 18.112795372678914 12.574233985355933 10.178451891328908 10.859619646890224 22.074005823014513 21.603426416680175 22.29012308290069 17.21762985156459 15.713645665624412 21.202025780048015 23.64680711393795 18.57442427719797 18.816093115825016 20.081968123007996 14.595555958395552 15.731932951484682 17.242382466905656 12.738332867696238 17.6294913484966 13.740208656533701 14.50931026752586 22.038183995612503 22.022990738876334 18.448346680634533 20.172910382884126 20.98377871813561 22.07635974181734 18.978175334206757 20.33232140278083 18.36645486987732 20.9137776610488 12.426407204038844 16.62680029295232 20.56618365870311 22.99489865161236 16.88563926824679 12.711982102805857 15.783772094776745 10.71644155310481 8.501138913819435 11.579935349039625 14.244535962571247 15.48309191852286 14.678099203838034 11.62176341653315 12.815982771828592 17.33137512620517 18.443037320777908 18.66550087575313 20.92251130869903 11.783593499623857 16.762896811681827 17.7225902225441 21.65417247704088 20.304090637929917 16.8634052252029 19.159283602044486 14.498991953699697 14.699245738711921 15.378128076975432 14.293959274124235 12.013456709502329 17.982340429238477 15.390907204842751 18.99127551012836 14.550285015437447 17.818640596411555 19.830767048367246 20.134984117463993 15.701989478497634 9.392078909583162 12.778592895252999 20.498837081317248 16.901470456298497 21.561180891028823 22.562707660060823 22.170005782194416 15.934768450297897 12.635351286883708 12.393252197795684 14.38691031162302 14.248961422590801 18.645094370885438 20.255954779851347 21.677054872601968 20.310956765751712 13.146476815666958 11.272690134737172 14.849095079061964 22.69460120337129 19.77291316800918 15.438087752169722 14.294424604377381 12.313629619484578 19.277130486027726 15.31715373179566 18.561444473721426 24.23781010815093 22.994526615903506 24.220114164090546 20.313676686173718 22.412334449052917 20.479084816515172 15.534750271391534 17.358757271518378 18.61738513969005 14.26647217595342 17.889720826640005 19.37908623803491 20.983715467022794 19.243718780442997 14.030787097123802 13.321142261231236 22.874701350075725 20.287873099392296 22.187948862089662 17.537178522122026 15.280174449784118 13.013279333457001 17.61791820905241 15.43489103896478 18.644697750123914 14.922056184192634 10.778784478745605 10.148304232123534 11.14256265327458 16.43077481466124 11.339401372257411 12.316367460692579 15.157992900349418 20.716699346049076 18.64414646571815 14.79884969977676 18.151099509817538 13.85735359177718 21.26760667039808 18.1715023004987 14.317048567086037 19.652285735981575 18.417530764092035 17.353905540958813 17.549658657841825 14.550637250171784 15.405891327845598 14.096783300770165 17.040935471965597 19.19326900862781 16.75355897282144 15.30913781830032 18.776548880284274 23.39290953832064 17.370041175966232 15.022717389953087 17.5054481362419 13.610329691409135 17.549044389939475 20.742333943626353 21.378223151284864 15.704024066684548 11.638166921964684 12.579021302958935 14.195703631629634 20.17409547034543 16.056117698036385 17.739201882302016 14.96698751527538 12.70164743191711 13.719335283206943 19.59428060924063 18.25586411602873 18.414713858357736 23.439441456536212 19.75012889886855 12.444498311360205 20.083630768013556 13.263950311167882 14.253438003829961 18.395565943248577 14.99977034963434 16.70067985322111 20.446716728258345 13.25775435248476 18.499771252881903 18.156040060902527 18.686156324625536 14.36892221600379 11.12656263784711 17.724363212939267 22.154680617465935 23.9147480562968 22.810130677978158 20.13567701236606 20.3078714501711 19.26134990678933 21.058262546408024 22.400222223926786 21.709552753449117 16.40587877775707 20.16465549707351 22.16289764252838 16.378004624077352 20.413664073410054 13.295932613685444 15.750986686956727 22.25303080850508 18.585749744495573 17.720016888622343 15.142730293344925 17.53811126456896 22.83481302135426 17.226908363533727 18.18822500041456 16.713710520033125 21.889456510825596 13.68178797599746 13.983639512329717 20.3017529729609 15.29465122018628 18.70889779517501 16.347033551381244 18.359419441611518 22.514586204420784 22.452682987218743 13.75540540314968 13.233067093967094 13.766264896732903 21.83858988565395 23.521394690864483 19.607293788346453 23.21439115408769 20.157709816119784 15.91790902139644 17.70289783563274 22.087408744976912 22.569154602325863 13.59481291100509 14.17000466214099 14.896975546258007 10.843573192337864 10.459593703392805 16.21926255776345 21.3244750357918 16.299208082111107 20.07506388370732 12.4371574454904 13.927020228136891 17.644673058521718 17.70251859932889 22.427236266931175 21.72817026878012 12.062070179647904 11.656142326328741 11.759273729952804 15.99903616292537 22.91200871181641 24.016657177124795 22.873063086207132 13.665128260512407 13.156602316960385 16.52559265877583 18.942275030846904 15.976717666552375 17.93449958037111 17.63726088288958 14.051532998427822 13.323556862752472 13.631223726991244 12.25005068566477 21.30000106971736 21.619320097013084 11.704350339169196 10.614938894198831 14.699009004279946 14.522556340123094 16.343033124742313 15.920097704140806 16.012931888264124 18.47428299125091 19.78555636677791 17.699136489965635 17.128609285077975 21.799528011875978 20.790292598221583 15.042490060565981 14.479256491187803 14.413190249267492 16.443273657047804 16.67063416647924 17.228801358460593 23.37544885272716 14.368503332585137 12.523743362209823 11.558856221163625 15.670131198884576 19.655474394570962 12.364147762541524 11.794624137987586 22.127590999216164 24.961403859507556 23.804735327904236 20.310066326948192 24.231991999485654 24.97386594731525 23.377453656788134 22.344368718368823 19.3380238986344 15.318836299621942 14.783740641266808 13.633584273160116 14.37319503559079 20.344613296457062 16.649954553979438 17.78526434203128 23.7035126291279 18.68817657185082 14.1402332705095 11.786879988434336 18.340775967040074 12.662535369852256 14.994772694193415 15.784284640923127 17.125502352928017 20.60066461917385 14.90924090095356 16.780111291549414 19.09535288102254 19.467249983192346 14.465743614980882 16.72346332870338 15.238703359875716 14.071249176612259 19.491941723747907 15.451885360052728 12.761713250123853 9.8329659986239 14.549397389979498 16.367447460731913 12.107221501421055 15.719795252992716 14.62169695809132 21.034679845951423 23.253833883718773 22.852495724077414 20.582556523109556 13.795522618996102 15.960382866995284 20.416755935525092 18.697880580013187 15.907334900612213 16.4412809624346 23.125371681529163 21.339836704118643 13.86641302785312 11.513124250752133 16.995778088978128 18.73064967904307 15.934332097351511 16.302630626652324 20.31596351089692 18.584990804948735 19.27530968181932 16.200237120270938 20.732793081372492 19.6337922548157 12.865357302376683 11.332973130531187 18.270749355309945 18.3462728441334 20.420066609916812 19.37246628538055 13.313435601558702 14.846775192094563 13.043773444601099 10.797310854092954 12.22164263747341 11.681946372656322 20.62153862125546 17.476592082239616 15.395140676423368 19.489977034816913 16.546268125604918 14.190921524111628 21.395324233881972 16.420896420873454 21.40781854097151 16.881881236589184 12.070517938266903 13.066741418268105 22.088522765378418 21.91721246437804 21.62086180259 16.705358185449594 18.51830047902671 15.82903133106569 13.153447623333875 15.230457866832305 18.46119100312646 14.97651024049948 20.045838021124588 20.338372449934845 15.539845362199697 18.735772768759375 14.000940053855006 17.045117499125848 14.85801390337684 13.8171873512673 16.439278641776838 18.547956772270194 21.6458839282237 20.9130360878928 17.21234098343638 16.575888450207557 16.808729410830956 22.25473347575831 20.141907652122967 19.262316446163542 21.290564866022773 13.251994222787202 19.369043096596656 16.535017504754208 14.411959702394942 12.508271360696591 18.90663297120719 14.42551536732583 10.705483516737994 15.152140192860912 16.38978444311517 23.341385078360208 21.57286172982275 22.81791452448985 16.165782102894482 20.497550549785018 22.40517511942691 16.604305327946314 13.838310943141597 12.677865967573924 11.75176221621876 14.404338099508369 14.784841991649806 15.62300518075951 19.74060249323852 18.691013389196353 16.93308750390909 22.26427504605627 20.40846287035476 15.554638740852615 14.660410863899044 19.400052887526257 23.31823782279128 22.92270199053029 15.916228578867178 10.960401099395977 12.67968932906673 14.36165650887843 21.50308758588018 17.699077156502614 15.711067514551317 12.561804605704967 19.71946575103626 15.95038504823069 19.79502969963478 17.616815346427956 20.43969092586782 21.493559695439448 12.678907890884929 18.435210600935214 12.529706567948505 11.454921123025972 16.44649754094894 23.167894849103387 14.656131443858795 14.148444444722553 17.515910163478033 16.55461752041039 18.52044584805998 21.440798849690317 19.789008524766107 18.812573212278966 20.403508929208922 21.704452069918126 23.033543372053334 23.822808707875964 22.985765578919658 21.645652197315535 22.82009622477706 22.571715595470334 22.461981381157717 17.973675231459826 19.790426058027396 22.24184343255257 17.51888345047266 17.876357914273868 17.824462032291816 19.191150271392456 13.748572216588984 13.467075582065679 13.998424296296367 23.45749570032736 25.21594181854576 21.084713679989193 21.161298175286255 18.93148573813791 21.29732241778336 22.147058305870225 16.52196757435742 19.510948422009747 15.909733746244752 20.55461924554304 19.98529415216632 22.193743809501004 22.06553279471516 21.078201765193743 20.224291038014865 17.01389573412584 12.887960513692565 12.124790915953911 11.450770079955248 16.106226801854774 19.28606221545171 18.375056949852247 14.660376395997964 18.017112177204233 20.176061920142725 18.443565557007766 18.036635332837147 22.528579488974728 15.977115707133649 11.558751030642874 13.428266037683661 19.25041537673118 17.32001772518476 19.37917134289481 19.165155930139157 18.77628068256453 13.17393338155875 18.548757679349066 20.39670705713109 15.613179470691149 23.31002706033746 22.5082963865403 23.52353551326279 22.53064345456483 23.874245912804618 16.208148235790517 13.63605049629727 16.632371758548008 18.571606359164306 17.17616632527814 19.595415430306705 22.80314234255946 21.472224454117374 20.63564382661318 14.504680278701219 11.208877079928568 13.345802713030738 14.457010763260017 15.684436323657858 18.40334291008469 16.931048212661278 13.789051520777488 15.83695228686652 15.864225128116765 17.707142239660296 15.902838601506135 11.928408043675269 12.916354501305925 14.720180313007123 17.24089074314409 16.9028085189923 14.695542025882716 19.792792463877095 20.795085190141357 18.04638109642076 12.750906251056502 15.86974943234208 16.2745722601039 20.49102311293447 22.829927690945908 22.040780289771643 20.14988380388712 14.286443462233876 17.204226908689872 19.55078371049762 14.398481087088436 20.88668535919319 22.799882559311502 21.28502150466124 16.969128442562987 15.923971241327221 21.6750376442722 17.9339938016013 13.046632398726238 15.666793322719125 14.398883198995541 11.578897578060268 13.188071667703326 15.742487813716128 16.860595546973393 17.04242230121135 11.82555524752221 11.73454783421667 18.84367964706261 18.000877796886595 17.285458759422895 14.606480854902236 14.519112324596316 17.602340201001223 14.124064011370937 15.207803259998787 21.159483600002847 14.902575092678523 12.956613757358127 13.878782285137817 21.222732597191083 21.053097928655763 17.86945951827854 14.773924115026887 13.714454957212155 17.52293911481979 13.23500204741113 19.954416759160026 15.376020894355314 22.28738457476564 21.067149724113616 15.715075537248472 16.435046265782827 11.471273940248281 15.726075186900436 16.69012798926785 20.772375289379802 17.62134773163173 23.26790610635998 24.954194237572537 14.522299325630222 17.01054612256709 17.290732146299987 12.365468758022429 17.522271549802994 22.14164185587054 22.79698264832436 16.080426823636934 14.569571459384143 15.4062958260194 15.03371883190435 13.127467467477592 16.692944698343787 12.39851762528924 20.71226717170335 20.83849579262116 16.38358669575997 18.412526124232432 12.267019505329234 11.984528158536305 18.554794090867524 15.181895387014952 16.951089126582644 12.677788997316627 16.97880722760842 21.318734340753213 19.66665808356284 18.47324695589274 17.951529705352602 20.17191678880474 15.27942739732105 19.339582942595612 21.803633832514002 21.233517082094508 20.189065600182737 22.575347083499608 23.80375728159887 15.385263713257789 17.666921578958707 16.378780294626072 12.020823489941113 14.632915266676356 17.403478425471825 13.665541547975105 19.73070910062437 19.748532714855834 16.616980458682054 17.611485708306095 18.93957486120531 22.38716209500308 21.28140025122826 18.380443429693845 21.87056672757654 17.200702545048642 21.41020033841086 21.54634827814874 15.571049791806406 14.246282461572909 13.663757145936835 19.87653260769211 20.524656452333485 17.836758218907434 12.282526104447212 19.773022948066647 19.39175011896263 20.044784865407784 16.609215205267137 23.774697837254593 23.764934587140562 24.168132855618477 18.490278178320086 17.258050865845508 18.271772752599485 21.622723684964836 19.42604654228359 14.281381516448002 17.548926009356567 14.044682927620945 23.44641704657181 23.968362898665443 13.301939531524178 11.927863556942112 13.957654499606113 20.357758228329526 18.754664018258477 14.42969713055508 17.80288909151663 22.137410967941282 20.07953133951563 15.052809712158911 16.81066650863722 15.15956607618754 18.618848805094995 13.921406278136972 17.246626513275974 18.777908460865614 18.688011258270205 21.373847775339677 22.05184462925649 18.070741924946372 13.228366341006925 11.801967316520114 17.578240641189083 17.93471976682423 20.83769936704438 22.86843354302643 21.23913503499623 19.34006928666327 19.259005458676494 21.150834424737365 13.700349092587736 14.936733430177389 22.40030901279927 22.178296788754768 19.370182781086974 24.250679913948183 23.09290566415161 20.64977699950505 13.120903975252082 12.399927310043939 20.881804106839336 18.811296899190722 18.882495212717664 17.785767076153803 20.818170416083987 18.719406517479392 18.98869574935311 18.55011331255165 21.031831924720347 20.95226689017612 17.949381409287014 19.21448254399698 14.017712444006143 18.029042381133262 14.845640662562415 19.04750314825697 14.246526996353507 12.749760438063232 19.0361704157227 23.11283043904969 20.65367933119442 22.10110921713702 20.291278223411492 19.123698521358957 16.25487646030923 18.262750829475333 18.045863752622907 18.586125154491462 13.34619717317601 13.73950136054244 20.03214306028462 17.58640424913102 15.143602098428284 11.582352363185187 12.480732730727974 21.50436500394086 21.961471608258087 19.305566820985284 13.255576478845128 14.364510774698145 15.430749745876009 13.943820215039628 20.261286357976584 16.54188325754331 21.677291806231057 20.87449497397427 12.885614384207475 14.22672926932001 13.977601324404793 21.292248952042982 18.29057422571046 13.308659441143472 18.109723008723844 15.088285610476799 20.140439974068727 16.11209294835202 20.601162734477047 15.225904130123665 16.126284759383786 21.56097841701933 18.177302130935544 22.06117928397932 23.051032098491312 22.04542385569057 17.515958285934232 17.166249874006027 11.640669470879052 17.18078498956408 18.942958426202853 17.075056446196797 17.0624124933391 17.33533150530016 21.322142889099062 16.322521354115302 19.387713534194233 16.052314543335335 16.315571782924163 13.782643514972921 18.970706484647632 25.119177735645202 20.743667010068116 21.009627430326667 21.29399033617673 13.521181346252675 16.422525340380854 20.369796295300336 20.160113482115666 11.861345931571176 12.724053867555847 14.14234350847982 17.226349445772836 17.26489060982391 15.872663799015504 15.667578420229361 24.22847137338907 20.89153458397076 20.399777074604277 18.16662631512486 18.22538578268037 14.150298826551335 17.255079631969085 18.028316239822637 22.690490040528474 14.404485109616044 16.481266247322292 17.27512492115149 16.5379404687287 15.3706539010104 20.681247200526062 14.285372724173312 13.768589805900016 15.365177236859482 19.526182425227173 22.51733258081973 19.052759115722584 19.228683262216972 20.914787642397716 12.274009070955184 13.29955188224437 16.929144356196314 10.741423982704838 15.850648144470293 18.30691512638266 15.613946642737876 21.22232011097741 19.87506078757238 16.85270124931278 12.673327168258131 18.248705996126215 18.38881666867804 17.316055330033883 13.288564700920782 16.819678932121587 22.14880240143136 24.335477768928417 25.474049575024626 18.363395471775323 16.877502147343357 14.834103822292187 20.855923211770172 15.696761533185501 16.03770618285454 13.770939554667851 17.292285341475644 21.85863704127416 22.089264824208918 22.61881073248293 21.75925458395348 18.80010076224904 20.159248483596496 16.00546506822576 11.968648780509202 16.84162947239274 22.571913893796356 13.966462644557508 17.118755362389468 15.979051943950175 14.795884600246946 18.66038109053372 21.419990974702767 16.29823521257554 10.968405235921683 15.41068350761978 18.510322813211726 20.48230566242867 14.917634242493113 17.62823482674724 16.416180442436136 14.642372054118395 19.215824173014116 18.60787214188378 11.391273229778973 11.139563345078951 12.036214788759201 15.882336507210681 18.602561706555 12.802642664211104 13.5913760923813 16.577044320568966 19.29572621617064 13.622202836249048 15.570653119137601 14.643299970129085 21.230426782745994 17.995409669856546 19.27285542512786 16.500078699967347 20.20700282918908 16.207108149490644 17.085114935789555 13.998255991280722 18.33683048814085 19.14877856421912 15.357726602903073 16.613948238071274 22.45223330131521 13.657489137748481 12.966240789523685 15.988893486584516 19.18160547774512 20.650940463284687 15.67618988923255 17.652960660542792 14.641038524426776 21.644702391817482 18.22600424295516 14.174808844022628 16.009074983591606 16.531002888979636 15.294837723657661 13.8151915659644 12.181496242255092 18.57877696858729 20.373090885895927 14.837919183672154 16.7093972656756 11.97589663711674 12.061167692517328 11.790796765238207 15.729556372136862 20.055436408887015 19.108436449347067 17.64531243968799 16.34918244139546 14.882191076086055 22.987248886234745 22.021702789176445 22.152148706346228 17.861319509742476 17.92397792559279 22.75831730924783 21.575222820816858 17.825540493149255 12.023014137508685 10.260851881949286 19.095271857837112 17.423498498935878 14.5259583420271 18.05063852180954 16.702813487658478 15.85030499526756 20.132846323217677 21.053471751807386 13.798756271945209 16.47521058030176 17.8101998641631 19.805093619175686 21.63326218313362 15.024524435427466 20.68962158964561 14.177123891506854 18.526515279688894 17.50241187310806 15.674846794433623 15.88674166849465 20.708267604220172 18.467584672852016 17.254830929776475 16.246323270473155 21.378107184826423 19.680009866069124 13.893037076852872 18.171866726002538 14.814896249778608 16.87302764964316 18.451285110055025 12.547638232577375 14.020990854187616 19.228681607438954 13.795243695323787 14.95378717865402 17.787542694629018 18.532779997926635 14.810580184586513 18.16020607839513 16.151317871847944 20.827649427179086 18.19231569051189 21.564091958819372 22.93000153234456 16.673202132188027 22.436812155070673 19.20071208554582 14.410458948310067 16.78983643666209 22.23726479994904 22.296257380715623 14.901826694724038 18.85044236100707 20.32325128294122 13.46731155721502 19.555542427990012 14.64073018767121 13.047381276643971 20.298302503478183 12.40728161262738 15.683453758723134 18.58443686034173 16.788153275364614 16.55114466541681 20.603358855196863 16.238689821589535 23.71420565909703 21.1093525699369 14.695205920394569 14.627464547967898 10.07062046835228 11.65829092642197 17.84948816501114 13.572960773823645 10.933