# vtk DataFile Version 2.0
Ocean Simulation Step
ASCII
DATASET STRUCTURED_POINTS
DIMENSIONS 200 200 1
ORIGIN 0 0 0
SPACING 1 1 1
POINT_DATA 40000
SCALARS Temperature float 1
LOOKUP_TABLE default
14.24265854770551 13.446386698225625 14.460689563501393 15.684801362374818 15.585353460980718 15.350300095104897 14.792345769339788 15.884715825555347 17.60111390004456 16.767227924287564 15.507791606012358 15.330874998388328 16.5790950616298 17.77578118260326 18.13577477721145 18.885655078575393 18.718840695795297 18.94040783806423 19.938121188244335 20.536638856588464 19.120918704579587 16.47561186111738 14.262939005568093 13.65839234947639 14.117619562406196 14.53035737536232 14.79185910008159 15.076686009930057 17.235681322333235 19.207845968882772 19.0957336566806 18.230081226928412 18.965139703591205 20.018615512675233 19.92731624842541 18.45074282978903 17.675341612306454 19.148934774187214 19.106005754483824 19.638150390825945 19.92769930586961 20.22746628546264 19.733748032530816 19.031656202209074 19.81749037183302 20.075563645326067 18.172722407545564 16.451320437441186 16.183777450341093 16.135384575276298 17.162117197078874 17.893292255564518 18.35063280241494 19.316211641724905 19.90985596974946 20.282612816721205 18.408567579534143 16.077726294576735 15.158186619956506 14.512774695393876 15.916561087517568 19.210834954163765 20.6237879210381 20.153930262171507 18.66465941204796 17.99229302862083 18.636715983730273 17.280881627365723 15.490893573481852 14.708144972444916 15.86756665993967 18.51624317182834 19.8725496373489 19.76994006050777 18.951169126916724 18.27040750000916 18.52159834471259 18.573153824714243 18.096110111708708 18.178313637244713 17.011887913653663 15.846558097665637 16.08524073233968 17.02392657849678 16.59340425405434 14.403179511457564 13.79647515457661 15.635985180131094 16.56669773339846 17.039873185813693 17.207966995114546 15.903490717980022 14.232946658093756 13.601160437199296 14.176677748268688 13.819894216376372 13.538807279933682 13.60375896609362 15.159927547229673 15.930249808890835 16.643210533204112 17.72932219744312 16.9970774701916 15.67411036539729 14.209242561848189 14.536399794459202 16.630204373210738 18.384383336254206 18.61295172107463 18.931821148612187 18.6898912150525 17.0500596541641 17.487065706145945 17.039802710107555 15.98540516218749 16.806632650273375 15.989289417373326 15.550734555431061 15.783880148437298 15.874693377148786 15.375090861093094 14.275107073565815 14.651105894129438 16.60105782937614 18.1160852501532 17.427082720682474 16.99484495465455 16.523140869590783 17.264502174851764 18.29804762910913 18.02027504106812 16.921223080155823 16.650947783863256 17.90154117308175 19.947320155267345 19.947846317333305 19.07610893355624 18.02069070097444 16.570519452118614 15.43531396547417 15.28028787302081 16.70497705333272 18.855909300405294 19.116494844761824 17.741250413206966 16.885662992707605 18.60073502240181 19.4665387368857 19.12777646273871 18.714849940351783 19.75264924168203 20.349619366231607 20.093105746658303 17.59753944361585 16.374022417204124 17.017981557713238 17.811467212294602 17.538943570643685 16.63857580860304 15.980786745133392 16.247271586817146 16.77601220246148 17.075787061124647 18.652086768006413 19.50835981953973 18.462963007397285 16.606244190555525 15.539931889135923 16.40492240994294 17.456489971413244 19.275631277603278 19.470568586263607 19.112238173782707 19.513574802172194 19.879488781524543 18.82479282635068 18.312200297378805 17.710304175893725 17.54499842044239 19.116500819166486 19.996430844053418 20.18448649646484 17.919596669458304 16.307771701315215 16.082433867929133 17.167205438074152 17.714113560448425 18.388021117937928 17.68119527895671 16.673301242133878 15.235024239432516 14.804926665528802 16.087909842545987 16.51351040614245 16.980607065200406 16.765929024331058 17.563914827056845 18.148848747285815 18.294004669606256 16.77409119221067 14.874945293921659 14.200547025913243 15.814084754269684 17.49436789154524 17.591147496348697 17.33681454168439 16.221343228802684 16.952651021138987 18.145731995728255 16.918875101118598 15.813429668203979 15.819807728388193 16.662364885406024 16.857639658404192 16.897893151067386 18.587049516390834 18.89507927140405 18.900278649270422 19.854912045446316 21.231990208126046 20.202351077501437 17.023180050179697 14.476465486293536 13.518974840614023 14.11211509666501 15.297238983888342 15.308661097302881 14.810038255277437 15.275184142846 16.40892148580718 17.19905959290852 17.751466272375374 19.7905216148492 21.746101199555532 21.885744960705814 20.515221401609917 18.78623417451124 19.847633035047323 20.176391822735553 20.49242991099407 20.09634308560624 20.32369519981294 20.825225576478473 20.61049965003856 20.29968832142527 19.26966663134243 16.95400248710355 15.989880721446156 16.76074429433953 17.199819173080307 18.10601600399593 19.294295536063508 19.989316483190507 20.370814004126444 19.321312473249122 18.994863900580967 17.818887524571245 16.371757834906347 15.503036813144119 15.080339622792241 16.417256673160388 18.8705064951665 19.502512582268675 18.139168054567097 16.71964952033618 16.512994093009233 17.218220410024962 16.093713454393203 15.13977744664347 14.996795253604958 16.647702850537087 19.530015035965043 20.246627988148983 20.3857243942215 20.519852102013136 20.62485585657423 20.958602899320617 20.626491188743234 20.21936084833631 19.90592312162392 18.894715007600986 17.444376403522256 17.01854952779959 16.579259085518864 15.467455535693732 13.971680626037172 14.191373479451988 15.630571101586781 16.17225992469589 16.913815071484475 17.177768736692265 16.81231710099786 15.385783392476851 14.928215159524 16.240210792271267 16.246796840429354 15.713660769745731 14.434067068743598 14.853022278842243 14.649057678943741 15.629033063409556 17.209121629576526 16.75972867559442 15.813060464530338 14.86830243170996 15.402394340794025 17.332293956980006 19.791087124659825 20.000831789955356 19.734111124163846 19.926722749072063 18.733447407849873 18.251564180266893 16.611852700923603 15.044605487843446 15.999121959484379 15.966674766979175 15.869391811234497 16.19056065501349 16.53990218500717 15.86018085884432 14.124729192534465 13.15843616412074 14.982909905483021 18.231659737431926 19.174883254237177 18.506677468574793 16.665112539453215 16.37793106857159 17.18764474442032 16.642572075599652 15.948588884489329 15.900796651025585 16.530859866008946 18.52832940797751 19.023272470990033 18.571897646255344 16.577016971766053 14.557673245108111 14.12675811773563 15.846593085816826 18.092523080160426 19.854531331604218 19.348386383151674 17.75423036964001 17.808133033211952 19.688526931263063 19.654176485401525 18.50969268335383 18.22588737822434 19.121896208533737 19.441679512055032 19.02617361992332 16.552366645859657 15.726906828273965 16.511424295608762 18.000223796388028 18.80096416498912 18.293550963674658 17.97047958451952 17.92702037613403 17.305225600509758 16.91644250317704 17.73131871489927 18.746962352600356 18.413451776008976 16.6126757516347 15.046860732343333 15.784172095972995 17.59108596184842 19.541698088208634 18.881918206716463 18.06324167569895 18.34378474883166 17.842804337013717 16.515719697979858 17.09419782611702 17.982790712902997 18.364151147130148 18.923494706939017 19.075162262185316 19.42246915976059 18.714193854218006 17.70100611819904 17.034340762804547 16.50014824701171 15.425823753596255 15.917787471552908 16.23023514003426 16.36576206820093 15.91245753268742 15.823721999505375 16.84866610712292 16.693740167920524 16.90163508738672 16.676369289263263 16.61033287557267 16.43852651691456 17.29164560756342 16.673759427844534 16.58528724921636 15.813589768727873 16.842488313002708 18.119883404803446 18.24052979646286 17.692277091697115 16.05985003904532 17.031487558581798 18.559329949382946 17.77106364718922 17.010453262947664 17.152629386547567 17.135603456003803 15.970202179987192 15.295285484696414 16.426317807357414 17.012126292714502 17.889909403846964 19.256273771034046 20.589789700154583 20.118696491040733 17.551101984530387 15.024542437701879 13.909809999562986 14.996012355000332 16.544849497393084 16.09081549361906 15.106288446451158 14.207074242950734 14.459147503862365 15.673118373478701 16.639097630184075 18.902258368453612 21.769438868624512 22.859876970067535 22.1148345916626 20.224597994655824 20.737432034321536 21.20796248453777 20.827060620040395 19.850384871323573 19.06759383158488 19.1894052504956 19.47917602589431 19.263591235542208 18.519894460096296 16.693874088874658 15.662483356930563 16.75339370206687 17.795277561759722 17.94887067630398 18.663403263866037 19.065096741571374 19.259776710073485 18.035022351399864 17.78927240969086 17.267716288503586 16.408169150389966 15.318825917728114 14.418749903822459 14.79186243308455 16.109324969847552 16.824354768833885 15.76784964815721 15.66576232105936 16.856397762168847 17.96262836039936 16.92427900460664 16.149975084497576 15.77432594610328 16.359285219724516 18.741878935421763 18.74364583848198 18.371121107051444 19.20073540933538 20.155296989520785 20.990057436196008 20.944281802504346 20.38238194327556 19.601596278029778 18.872537079775125 18.161646946868782 18.004126305004586 16.704321418021394 15.347378987851041 15.071178791563453 16.23551124410128 16.872977509977773 16.999739106628265 17.536755131076884 17.350672509863273 17.775257934498505 17.281160553251794 16.846879666515314 17.347636327878227 16.621117090111497 16.141661861956152 15.095337224783748 15.40996069025112 14.59641624556098 14.918209586619094 15.728900096002127 15.911085013256741 16.49062511770991 16.968898083668922 17.794203739962963 18.99177564618326 20.660918993505646 19.86419230600454 18.621208034307728 19.33391607265707 19.033475156707542 18.700786905035372 17.153420657689026 15.259427839080326 16.053866669729707 17.340386363797275 17.400603394130545 17.74659599473361 17.873872158383108 16.951396839055217 15.205770839195916 13.437078939830762 14.802919380185577 18.26968377602815 20.179634384637225 19.58391394428302 17.975123140926645 17.314222545839137 17.389136657193653 16.970290152682193 16.640634695996866 16.471572196098936 15.944270638934618 17.155156714801286 17.663063694364794 17.300433833103014 15.558846600689462 13.841197169334677 14.563421280971054 17.523388245936676 19.157992476107406 19.609881577185764 18.560713769902353 18.047941550290986 19.189961496206585 20.04248096093587 19.29409299942182 18.51279214863461 18.345608115088215 17.60416658257077 17.45013959677089 17.485740752382913 16.01373917170357 16.024130885190107 16.226663191536414 17.56441350007367 19.399556198232215 19.461278414462136 18.367266669681637 18.067041206830197 18.236686990900296 18.863660098738322 19.297520323083504 19.571303411204006 19.297481620091794 17.918969104632406 16.189061120129686 16.97477309562706 18.751539561688784 19.500632461240198 17.468365179580296 15.860885757849807 15.545804787480435 14.313486391061906 13.493786377015256 14.932526531813053 16.59026396950065 17.050027534963814 16.95728806251696 16.149738571771614 16.524807992760202 17.55606866571294 18.212940752633628 18.50333331015655 17.604486714256694 15.155493117235673 15.087540935511512 16.06836481711714 17.578846021519436 18.28111167451092 18.043676694926923 17.764894103663842 16.275009719203506 15.936463157853304 16.02482257998381 15.95698272484638 15.760318632719219 16.92333704666398 17.048711278662946 16.92962030366158 16.011951207666137 16.57784313924331 17.648780054950254 18.25611498270002 17.09748214820381 14.620352252321359 15.198770600317172 17.251627092839097 17.59807270856018 18.197377448577416 18.71189473875706 18.29864764382134 16.731712138169573 15.604502973852183 15.728516283322381 16.375820903605838 17.596790703087162 18.902108913606263 19.543004852131357 19.325111485522818 17.730341987787007 15.616349467966842 14.803338989484914 16.312608265515294 18.233613951389763 17.17548038673785 15.44927961190109 14.370863448993791 14.693747287342394 15.98532215193221 16.243546608162823 18.16111770542189 21.509550630771244 23.017389525594897 22.702151986921926 21.33967436331329 21.492464799038626 21.28699016919678 20.143662854047488 19.195685198812868 18.2523781865366 17.487676131492474 17.848835702138476 18.22464837682093 18.416596295790715 17.6475928975658 16.44785863536964 17.17212943660968 18.888821034062747 18.646924378546395 18.170190895059857 17.362906566652985 17.029596496081428 16.188081368672428 16.55854758413869 16.66706773114446 16.701523231384595 15.743156849214461 14.217022667124208 14.014457812019959 14.954631270670895 15.60281967975492 14.573475591966956 14.860912789669102 16.343510724207093 17.770659027893196 17.48965112448374 16.454787428293205 15.806069951947737 15.634684930027577 17.519548210279574 17.495765460458266 16.868494681411786 17.975509192947793 18.83775902717257 19.64797820612367 19.764468985630135 18.988864799420497 17.88649279980437 17.057234134111436 17.430008972085393 18.098564987781415 17.265891778427832 16.569230049520307 17.411123481910902 18.800271929333807 18.00850608390303 16.609660035848 16.359125643602606 16.437263743458704 17.544746430690576 18.079581279776388 17.949434370153536 17.26266777319743 15.929765665749958 15.674607278457417 15.822866451508496 16.880485093387776 16.10792940866755 15.345100200071029 14.971086944603362 15.307380414255318 16.452918504116937 17.800861608565516 18.274291771064817 18.605853576004673 19.426773296161052 18.08604492956578 16.323494780265627 16.889667429716887 16.747479802561912 17.36575599769401 17.255142785968875 16.29668819676187 16.87002815898053 17.51723043422756 17.094125160517205 17.916589771737154 18.087207569801986 17.62849540622387 15.883777320320604 14.374017967563518 16.038522139553564 19.378722793869027 21.178943451011357 20.600228774584973 19.05165908525771 18.33809909565474 17.92486489334638 17.784624152469988 18.054665746472924 17.987365490702448 17.20568972593128 18.091696483250058 18.313993657218525 17.412640919059463 16.588552607402796 15.163574198176958 15.861423720103197 17.777813109235936 18.178577202355267 18.11320304736686 17.73657699417875 18.42905992765024 19.561629515599805 19.000424957278028 18.2234790831831 18.172008348020583 18.737690309524066 17.515000835213556 17.14643910423174 17.507179403836247 16.463610086752606 16.809744848571555 16.67106953908836 17.48837417040019 18.91487745691131 19.007267848701687 16.941921327648146 15.950352944947959 16.862620629046617 18.958018684209076 20.37894123833624 20.490845204537756 20.37316488501893 19.034938538700764 17.939640899756654 18.513395451332265 19.141317790474965 18.53572656641816 16.025548030459657 14.590731119853961 14.412382745656574 13.681754719479182 13.814152507207682 15.713122062708546 17.283124896696737 17.350182777139423 17.301240852092096 15.91667600485328 15.712713214536759 16.929451757310105 18.58676788584785 19.831585315347976 18.762589997381042 15.37477562827953 13.925087977174336 14.630701220545646 17.018357416390618 19.311653040761477 19.56197647242629 18.332565672321707 16.12723677854707 15.886222186118806 16.456933049311466 16.987514545513204 16.883936188897522 17.64095073396994 17.621919280069886 16.25585811718094 15.48364292589293 15.364247289273177 16.183294274971352 18.133270965149002 17.885233084413123 14.874677265269472 14.275987967486696 15.685479252136892 16.35024578498596 17.374352455712614 18.07884255448047 18.083008061021143 17.91272080872242 17.80332007604703 17.771188940826033 18.336848470743696 19.480768432483686 19.76945442386412 18.954110995026106 18.380950211461716 17.807317054114048 17.118380389445104 16.889873644592807 17.96969525023845 18.998182159006827 17.078818168746217 15.3623737851996 14.935739433405459 15.661155065061111 16.107135899434706 15.35741613660955 16.861039486303234 20.77145705054977 22.811952374747072 22.574466167502308 21.76537696906779 22.065490488862316 22.11538226147719 21.082390603960178 19.762566224391303 18.501048247206164 17.181151273376866 17.035255316729017 17.20323156697683 17.951754557450155 18.51325957456095 18.079634735398077 18.385232729976366 18.94283806922333 17.511311159118232 16.0163714443521 15.375745434919997 15.989681331807704 15.739514138639594 16.16603863119167 16.54905423190682 17.262142914186242 17.26813982968609 16.111364237125724 16.069951792618244 16.831820332594436 16.4678997602358 15.095904261775205 15.321204713478155 16.275262415134762 17.16727819133748 17.63872720906266 16.565081355123823 15.205649478129356 14.448172821859016 16.076388269484873 16.697451731862994 16.352580239786494 17.676979709655583 18.721864138158548 20.164955801936546 20.827127653086038 20.138379089614286 18.125604991389793 16.47884937649471 17.12644649802365 18.289024046161373 18.03456444230226 17.86741174971114 18.847902419054034 19.957539951752697 18.589546990957874 15.974569992708238 15.008789172169362 15.741252531767659 16.881995719794592 17.35537604720376 17.752143791355607 17.676513359322584 16.86716920181709 16.761820251507988 16.957907666489195 17.807583321361317 16.82372172578404 15.013626543909425 14.464602214687156 15.716617180138469 17.03478286607299 17.993380021775856 17.681337405673265 17.180441332896425 17.318849121983366 16.13690705309635 14.653398490486204 15.09134555776398 15.815594559962879 17.659027942865798 18.126995758442142 17.68434849774218 17.757526646417613 17.20049461109251 16.835821629453182 17.960425009754218 18.087057710034326 18.454541274265086 17.17037059469564 15.575261392812147 16.38382772410733 19.198076486499218 20.70671022639212 19.88197930484183 18.01987400144298 17.28773688762223 16.431972979712135 15.899745702335041 16.564414195390086 17.26413858873399 17.24788982722341 17.97170349847213 17.5988566935447 16.706597809481433 16.86181348319003 16.157414035960517 16.249075731170475 16.39358075560749 16.38377712541234 16.929758899499713 17.529083280764215 18.645963087352122 19.24510055675841 17.882434090281773 17.09955209122394 17.762679656618975 19.330011707199947 18.991524998220804 18.36629532880289 17.857991833692697 16.50163976753664 16.833380590219416 16.360901214377122 16.558329710709142 17.147922767110366 17.919603691439313 16.43872585374371 15.133642222714291 15.880560065394555 17.511344441581745 19.546169425579674 20.123418347896973 20.217711484581102 19.20500073564235 19.54598040407003 19.857975634201 18.39672260471657 16.88263509992841 15.110390696825958 14.178198423563233 14.938800077997044 15.653995214753442 16.246228182503714 16.9817022498424 17.350342786427184 17.36478233878176 17.8100848989007 16.86756785601107 16.084868012065154 16.628719678614697 18.88854946713944 20.362599990873605 19.306295902613194 16.194697856665993 13.876455440465504 14.052532818282014 16.24068251857141 18.344058289205403 18.325154535728974 16.962218571673713 16.06881722099754 16.994285978354437 17.412415020262166 17.927120612306005 17.98811584164473 18.370055811698855 17.724185460404424 16.11048366462559 16.524623478421884 16.07153204743692 16.33681523742223 18.319695086607915 18.876924062226053 16.144332884267214 15.188485620737685 15.781675843911612 15.992800209050554 17.108286801966067 18.15047062906181 18.23569928826525 18.717450554918404 19.174072629648823 19.31595066291583 19.87341578232529 20.819439769412313 21.023397508933108 20.276779113716334 19.801711300082804 19.719819732119955 19.349811228564963 19.056951983121326 19.391432898441575 19.14506433341562 17.34563390798862 16.457073551173764 16.783848186794057 16.988804261175428 16.048004314994074 15.182583286808212 16.90823710987696 20.436665373419316 22.099536710293528 21.69070824707698 21.46762916342005 21.506846781614865 21.53688805435969 20.44038613216406 18.937044892595644 18.463624527363567 18.03563863878142 18.071080415334105 18.07292359973182 18.785912774987768 19.364400826154853 19.665767423341997 19.21095305532316 17.486358198112967 15.324237228386485 14.471433197050212 14.973637500708973 16.242964320072726 16.64495550787243 17.026683155558004 17.211625071264322 17.76955583659028 17.948078838661363 17.35792303005501 17.229415029263357 17.630865279229237 16.336907454833486 15.187996399940811 15.816341918749183 17.06469912384502 17.860157496688842 18.408226307527613 17.513264410593997 15.915756437640955 14.98377724443885 16.596613724046946 17.7851606171852 18.07844184685967 19.664441175298315 20.39401020001597 21.04787796607347 21.12764840560501 20.26000719937013 17.66955942911866 16.37585292860277 17.505359025108042 18.603393902758587 18.785734691207068 19.527680687704965 20.182588539533043 19.946155854967785 18.09963528481211 15.745454682802528 15.01172382809665 15.525147388526667 16.34621888995577 16.990506348489628 17.791086368659553 17.574959888588992 16.820415328853453 16.930944071937787 17.33687463735523 17.705663589855437 16.59781820073505 14.974519500356246 14.630753792548102 15.810847941830442 16.716069680869616 17.142929617817178 16.610725045278585 16.883963637946117 17.674042758719597 17.253918540884744 16.144027743203544 16.461123136739864 17.185137908073237 18.687421621684983 19.307660146177838 19.239755585157265 18.603202462047616 17.258165634437532 16.78789086546168 17.541698725937206 17.927166876365483 18.82392979123572 18.336931561659476 16.873122833865995 16.60049933111761 18.418511393079548 19.661724137724065 18.463190056279892 16.39882065887117 15.797632289800587 15.20530670728365 14.818471371515914 15.724921287538635 16.630812278888772 17.262430241276512 17.213673285063443 15.844071048423242 15.458127693619465 16.62896240803419 17.113344449012022 16.68298257886032 15.878200943043181 15.886166969769032 16.409986578821066 16.86887247680847 17.71758507534066 18.418357795754787 16.920320038017085 16.245124250826382 17.418930311526466 19.26824551731399 19.622694663252723 18.876885224567925 17.62650150019495 16.353578075679582 16.3763824281785 15.801167435985604 16.66954781715173 17.303363856462273 18.29856193254243 17.651254375450687 16.43343098433546 16.304375390102965 16.21867121578009 17.538864620292273 18.279028566088716 18.920842459637704 18.864854328783498 20.41306743048449 20.951240540244914 18.773360026095464 17.54968686675506 16.350580176556715 15.200002617307764 16.5120994155606 18.25263925209097 18.366053793955995 16.85474241233722 16.072521747374353 16.103944551100582 16.449229087318507 16.14531400580998 15.903325129521676 16.405695146956234 18.959216649302807 19.794136493469587 18.749454730825175 16.88917388507008 14.843324266511557 14.59943195886571 16.335119080061492 17.457207078048967 17.56715003705526 16.36223732993886 16.541970164684415 17.73731139532224 17.775458629535603 17.83039073308074 18.025988323034696 17.70664996261542 16.628689610310513 16.94834944225062 18.62949338209145 18.94240803609684 18.91754102914291 19.80525122004593 19.592265259530834 16.79042106704946 15.835044527954016 15.615520609393501 14.894928323521484 15.917448573194056 17.12128934820849 17.27887728622856 18.448495404340516 18.89215667665707 18.355324059881703 18.374677939898326 19.487737768503514 20.316167857412946 19.837096860082255 19.06935600114027 19.427520760578986 19.724857244576555 20.342288834613726 20.336643640795227 18.67301404101767 16.988135032558528 16.694796894275658 17.792169685196328 17.667963726390557 16.479704781584118 15.768804017156471 17.62872877024651 19.878147067184695 20.801000904299165 20.716840395203075 21.284039168357538 21.252798759170908 20.77790230316792 19.002652679910074 17.65716183036609 18.208596798417126 18.886385539502335 18.142156912813036 17.46569309748184 17.834348899786104 18.367260815513024 19.807513424598717 19.450573828935443 16.516894608454653 14.388477917835308 14.805648387523235 16.350393086872316 17.121171481412002 16.90185267443067 17.446628270754495 17.89485631184631 17.782835759255175 17.425466098356353 16.92581069245792 16.141925492633078 16.18940005400723 15.52731431079811 15.815684538113976 16.815510736180673 17.45639906964577 18.124842086972432 18.494980644782075 17.422448547316648 15.537305322305995 15.030254112849773 16.77109563882043 18.515533485970828 19.366663710112505 20.318859529895732 20.199302334022622 20.013107348364297 19.600611047438353 18.918600973926683 16.97249452385879 16.895075516741507 18.57467161816788 19.276032888035857 19.46565444757732 20.378506582397353 19.795590400623766 18.35331792783147 16.664089112285417 16.12174966059816 16.795671635654756 16.866988867120128 17.126625934206714 17.566031755073894 18.475896586379296 18.073457348164904 17.337392940625964 17.499970118935156 18.05758869485472 18.026255739131795 16.95238972265765 15.997202391267676 15.985539110439893 16.758914256769902 16.687665116652706 16.594669512556113 15.31990300142839 15.320684775600165 16.973066367784124 18.349557031698485 18.5402103439713 18.61592773100007 18.48430649624544 18.619842781726117 18.707223008740026 19.353924193262568 19.118324461990756 17.987889524764235 16.91125619721695 17.25045427100364 18.288731724129125 18.505381906057316 17.256690136698435 15.368850922880265 15.291834493465728 17.747443308323838 18.968802880834573 17.913969265304985 16.20652719172249 15.625070579245731 15.579165673024361 15.968226376973018 16.999216234658746 17.22270550042594 18.063653696691762 17.74477854285056 16.209573013380407 15.870990321896992 16.481081079645236 17.54672986651311 16.898516302694915 16.07276837273769 16.19867292907384 16.36920894713241 17.04405092125678 17.777487401893488 18.30103181669209 17.15216829344858 17.027814709606716 18.394929715727375 19.142243996271215 19.413904799513862 19.347880454201956 18.253787948285545 17.012593926912754 16.4467207036356 15.42636939440272 16.42882439414462 17.34496740108079 17.66417466040727 17.579709784719352 17.416875031789846 17.429548260055522 16.704703288115535 17.209276736871175 17.265373459332576 17.6599487674049 18.028471701895914 20.040425162903375 21.26245380945014 19.910673207010607 19.244934577359228 17.95949342100209 16.265937749001033 17.171805045377898 18.849558995397814 18.47934303620638 16.122078653590147 15.420984610951564 15.742544740178868 16.150528677798277 16.406466368831726 16.04391285157006 16.509303019454592 18.855686839809234 18.98393977247956 18.478677920896697 17.621668443699416 16.34741407610532 15.804831749214166 17.037060771401308 18.08160051120142 18.83242344810391 17.389207031211242 16.663793622307097 16.716326021189083 16.146499051546915 16.35787386626877 17.25751309437494 16.393045999346857 15.719415647161478 16.935524457243915 19.186338800292216 20.204037672939325 19.97010968993285 19.828272270603065 18.900470530812076 16.27128427011577 15.619775820968476 15.490105729793957 14.498582425659734 15.655847296515027 16.94611939016858 16.832449921781198 17.843561808224 18.289287388825645 17.331164694566397 16.58859386978338 17.71981136722328 18.812457425932166 18.343435921814592 17.093261149861934 17.750963211668797 19.28377055633172 20.879336505870018 21.513945727583124 19.870899968307192 18.353880120447435 17.759363517261928 18.05152636087777 16.896752565162995 16.242837753828706 16.446631309416365 18.19151218538446 19.715222996771516 20.396905010456212 20.555243854003514 20.2347377562744 19.234257219646008 18.482830828155578 16.82260533188719 15.891571878554196 17.415681750059342 18.911327730070667 17.654028403409168 17.48983365375803 18.01126942114021 18.339235607011464 19.160797902693083 18.783333791703534 16.370769064463193 14.456567514285647 15.15818797394145 16.380225418446184 17.010284374591503 16.85022836526656 16.93429670799695 16.671177674809435 16.472025288883763 16.88785481101745 16.554517055364105 14.76784524166149 14.363120765955045 14.580279479222282 15.573641223356988 16.6236942321579 16.30146721261805 16.311787501554686 16.770673910692835 16.565289538114666 15.423166492686962 15.645849823858022 17.23120268543882 19.21182295520469 19.567946907526604 19.465679635360992 18.771766277824177 18.55231888265755 18.0042406806504 17.790774153993585 17.09354185428517 17.47347767567855 18.48359697717551 18.475560100552148 18.493005983180215 18.938740254356432 17.12491533749225 15.728399973093456 15.858753003184045 17.074707381949416 17.366225428119492 16.485512480489 16.546160846373333 17.21164385970723 18.168636211362656 17.681467503416837 16.6449360338847 16.73415476644975 17.23914672156489 17.1495155044834 16.307260473899948 15.91187155105869 17.36599775300395 18.201932841990782 17.38803323787813 16.474838665523404 14.30057503555287 13.517082411205827 14.84896302369026 16.99029694678137 18.291324063786867 18.10649004142061 18.00081659054419 18.37789445701585 18.979603926681428 20.45488414035323 20.441956640316178 19.334220868290558 18.453404756740177 18.4540256694488 19.173424546480362 19.21858748451072 17.783076045916566 15.12925068949454 14.009642448547487 15.970989774789974 17.463716104396823 17.691946589400207 17.380771496544323 16.728401254031866 16.75695081376766 17.441562076877744 17.696572745961195 17.111727770223784 17.783520099728975 17.705732503181427 17.408029138757108 17.329384682031247 16.668579367226087 16.886653198919443 16.25339749820424 16.19696858144684 15.972079082862669 15.693590787485705 16.325969636077268 17.887070407821987 18.534974519273838 17.893071439359417 17.81615864735963 18.645361110774065 18.23503236932586 17.412948759712602 17.525745228801988 16.758805761332088 16.494025728268227 16.842875714037746 16.107780501311833 16.534112319654177 17.228082404142786 17.366683865295673 17.67264878276377 17.669938395499983 17.071251453947944 16.33112603043196 16.699714290822953 16.82532992319872 17.526189858742853 18.43703209746158 19.95011658140964 20.51017685701267 19.542657686560826 19.317277598278693 17.93490847808699 16.736475387629905 17.377360496327334 18.589568784174553 18.205853773298283 16.51463698725409 16.323847778230167 16.35492440534009 16.163188259514527 16.729027758657615 15.756465904338432 15.349347702981168 16.811133234641275 16.649491011351042 17.26768950856553 17.460379688066052 16.776328084089943 16.38421657737413 17.438877488702566 18.728617805769314 20.179933004860143 19.097305033770915 16.97005064699044 15.646568988249784 14.084028684928022 14.672343949950669 