# vtk DataFile Version 2.0
Ocean Simulation Step
ASCII
DATASET STRUCTURED_POINTS
DIMENSIONS 200 200 1
ORIGIN 0 0 0
SPACING 1 1 1
POINT_DATA 40000
SCALARS Temperature float 1
LOOKUP_TABLE default
13.332127947462846 12.57243844517107 13.933706477108107 15.675942274274142 14.936444636060209 14.934755134540286 13.924924360170445 15.773507327200864 18.932700621678112 17.241314361565998 15.241278721821612 14.660210540723622 16.566383792443595 18.38390436711962 18.319304629289668 19.768113382538278 18.83740498571288 18.49479450058307 20.116956534461384 21.335537848947762 19.169838372123653 15.760641725964003 13.008238779793125 12.72194576816377 13.550796360095704 14.148652315727087 14.802208306130613 14.194803102775564 17.517121862445993 20.694679664971652 20.093968966479117 18.372569649022264 19.426825727525163 20.997617546699527 20.70281538924576 18.119721946042507 16.603124863137722 19.378717016432883 18.06617293725892 19.41511254739949 19.715692914902665 20.832488527561576 20.30857677967717 18.639966075624557 20.20321190269163 21.281555100215975 18.4606777283577 15.96122201501743 16.251723186911036 15.437685501140276 16.992777689693412 17.6340292836079 18.233004820237777 19.848355046519117 20.583548574805327 21.377280169742903 18.0735813344201 14.866212407421177 14.65895294341825 13.395494115673287 15.134145810964277 20.42535905626355 21.94142853617113 21.580467991550734 19.41133903271187 18.06584013540805 19.98328724769611 17.96382615985992 15.509219564108335 14.216159272013511 15.640839244249799 19.298671867826215 20.87329526667206 20.788242547193793 19.48706537093093 18.36039809858339 18.77910455441249 18.302660922431286 16.982141273716373 18.169166500506417 16.692257480956822 14.760831665137825 15.379848826540476 17.60856451087204 17.34751357445794 13.728972246462073 12.77870811299464 16.4079487250084 16.49081367549887 16.55508452640551 17.5505445169312 15.53022173345233 13.226385657613081 12.379540577056302 13.807559775130423 13.168975610836018 13.03440580386118 12.617873910190138 15.170664074763843 15.946749391566067 16.30274328541302 18.67960558109486 17.437870449572664 15.804318531393738 13.364530507723993 13.327206116087496 15.850597561308067 18.010607379196426 18.130900449842894 19.54372981045861 19.459680682973868 15.890237542680094 17.48444073470118 16.94249525474508 14.811558144909656 17.092795197647927 14.904367932819397 14.614238431550776 15.61368702744127 15.636958691409674 15.770132409872053 13.960870019339323 14.23591759479573 16.96344645004359 18.96362298906712 16.80267272174728 16.961861759839074 15.716123212754256 17.170099647402925 19.059596478268 18.80161084757911 17.25182481945829 16.56708330927702 18.34205151803638 21.578537718240263 20.91251032753946 19.538900041500483 18.878532533060856 17.255336768598806 15.576948937093228 14.58495638657308 16.00348683930016 19.022795138817536 19.89122267838339 17.718467923589806 15.447858304223644 18.67825085583729 19.987577795946454 18.92680312557938 17.79204954964684 20.51674439859205 21.17355151495989 21.205347890372284 17.162193656477534 15.825495389140595 16.85503045721735 18.042243419440144 17.309708453343045 16.194313004069745 15.098893210640995 15.49411451019437 16.171289486499308 15.666519743550909 18.56426814957904 20.317023938858224 18.837399208101754 16.444266929462845 14.988238988640445 16.577264083692228 17.316733308503018 20.266308523371123 20.06554032707685 19.22981929729999 19.81522639160532 20.989442070819273 19.149399114394303 18.807318813749305 17.311756385490657 16.521340081845235 19.633209714849123 20.431276727234764 21.31146085896469 17.202788977204786 15.189256268835184 15.35211052588135 17.836374762076108 18.413637480379172 19.611762965096 18.140937105936597 16.682049559185828 14.4841657317476 13.990860463273773 16.50216972958875 16.320579128094582 17.14071380917099 16.14894222562101 18.073319688089285 18.475555311626824 18.875081762624006 17.21472645250353 14.069019996119208 13.097478390904637 15.984438086676866 18.492355000335568 18.078180970137787 18.30331916951795 16.161768609428396 16.99255514316411 18.872167091964652 16.395820433765238 15.213060095180394 15.286304529478903 16.8261867261282 17.006304395493878 16.275845075918994 19.855828558124607 19.805118309747602 18.900409820138442 19.661974299247202 22.466077018087372 21.330910727349416 16.761434419075744 14.041008375537428 13.080846676597938 13.637960421998434 15.64762593744296 15.47377178489724 14.33214132006136 14.77735852033781 16.2088500037651 17.146438878552104 17.363025319483807 20.433579908591 22.81616015486632 22.47731207713264 20.88330723742483 17.61144425601617 20.253892961308576 20.11204441577672 21.01146896684383 19.87027402006322 20.610548880695998 22.050341799996257 21.525174487303243 20.9768408610392 19.60896434017342 16.023370001341032 15.49981535707192 17.266826039245984 17.16168066974871 18.46039278502355 20.242292805778405 20.876030152133186 21.59395101386548 18.976490338362098 19.148192247365813 17.911475107384703 16.3964561430239 15.702898716158517 15.027936738280985 16.848528720770958 20.35403272465958 20.5519357205734 18.14364276276084 15.90979728635436 15.370301781893783 16.974985188840183 15.184403325536248 14.427845571431316 14.205959547490647 16.625151733177457 20.87950739676399 20.78736135634241 21.216527649622964 21.458347319733175 21.375655159692737 21.92472969942749 21.073181540053913 20.86840371035171 20.79724035749704 19.736531681630403 17.383766693551884 16.99780152075054 16.581869041014773 15.379604833435085 12.993350413329768 13.277592569954185 15.59483322455375 15.529477916625591 16.77304753086892 17.255267623453342 17.273583375308686 14.818646385487819 14.071661625446433 17.146755714299097 17.1576440185959 16.751625414541394 13.847259513020187 14.962502379391584 13.798151662142104 15.319207099859154 18.37844647274563 17.058752103796085 15.606956951198304 13.869706261091645 14.489818803550902 16.71938041579891 20.810291584414397 20.612000747114468 20.06242140971328 20.972354535342383 18.790077943242437 18.76727626899531 16.233685401532536 13.83699661054602 16.402068197062405 15.436129309947153 15.372383210125037 15.688666657716333 16.652231913700575 16.041636007728044 13.468206112628783 11.696728985670834 13.961941761105212 19.179460917711918 19.912218321237155 19.234017663343234 15.697660552808525 15.295225290348906 17.356292994003063 15.978898720208933 15.151801096645832 15.320402370429933 15.740237755912982 19.065024071582187 19.318274772632755 19.465850897616555 16.393142246745303 13.677645511884075 12.829603009335832 15.248881513885088 18.281372310609193 21.04536546159247 20.1122079870094 17.04665768518394 16.899914753082083 20.72498223749433 20.20697043619224 17.915980941833254 17.532799173343747 19.793550181226248 19.94886141668134 19.987172157105313 15.803648690846368 14.88381220842555 16.302146199402863 18.546913283158993 19.463890697393545 18.152519750484288 18.516568609704795 18.834827761897447 17.072718001690372 15.754068864388937 16.74928967337891 18.620575764227162 18.659824446943773 16.09461169473843 13.837945510976477 14.864749295623271 16.982374866749844 20.498857871967683 19.077830845173636 18.0026794813212 19.22424727872865 18.793767434827643 16.04189699008638 17.413379918791758 18.890815728559847 19.190444052399204 19.669672585454634 19.70629003404639 20.56412620098093 19.59431263974799 17.991297731615276 16.842150123528008 16.010876724338083 14.059498239118367 15.377797786001903 15.752371447808601 15.986307642269532 15.209275461847737 14.977499698016647 17.285986207859974 16.74793841474494 17.489230520828894 16.903401340943574 16.639961959915887 15.603377290614292 17.635414420762114 16.992104067789512 17.398068062352106 15.699653279551125 17.147046597257134 18.759586512739382 18.3734205092159 18.49200113245056 15.550011917456896 17.596555878854847 19.94376818449334 18.08417131601087 16.549173450228714 17.068502771438116 17.29035524310594 15.235712499951447 14.07747961137807 16.303012725012778 16.446977413029874 17.602813992488418 19.154841595666824 21.19575524733962 20.945579757546305 17.58470104904504 14.7251647062964 13.112917060365524 14.793438735169982 17.00019734438797 15.959497755341529 15.271678543612351 13.491417297834936 13.412739524673379 15.171272560657705 16.009612456998678 18.51291940099789 22.277610989087485 23.58670563350543 22.917125519237572 19.41165149249355 20.746567631526172 21.907191331717804 21.462633442021424 20.04137199139431 18.458459368513708 19.124543592586576 19.797570089702113 19.276081921621717 18.65686756724423 16.065629660603726 14.59850575613127 16.80088095664923 17.909486111231413 17.13964020637238 18.528442590001802 19.204755782462836 20.21226993678273 17.86867886015238 17.906987452409368 17.436748449461433 16.366555860314303 15.058199696184886 14.001349980623464 14.311089525135017 15.65120085723122 16.976937608879158 15.039058769347307 15.30580250151107 17.360570819301273 19.173301294980178 16.769850149430596 16.44595426691829 15.843529468365121 15.683805123982225 19.72675109999497 18.613831434035898 17.6531096372544 19.017182938359646 20.401267096910605 21.7365327163797 21.606790920294504 21.031852699325537 19.963743890955623 19.551078365845044 18.36766694474012 18.807594032728783 16.560292944937128 14.564681332056228 14.15850715690553 16.30385543290437 17.052440631940488 17.315526137452387 18.611299276249984 17.335936449258348 18.525650372985755 17.608530531549107 16.610179465815957 18.274828203690056 16.755166958284384 16.80835988532764 14.513082466569392 15.613099509032399 13.569452067084336 14.381382573267313 15.677618966641496 15.624729203825979 16.943897394070977 17.294786917126736 18.445726555584656 19.407297569398366 22.144169186670688 20.446408767962954 18.11201794397289 20.297188919805347 19.96032855483447 19.797759902868922 17.574997514055905 14.039847802241237 15.502391796007215 18.377502549457603 18.027049980107062 18.26761617508035 18.631178663637648 17.219022160488045 15.703406467015004 12.348823262848494 13.62550041708349 18.237927593739848 20.910609866105283 19.710018513566503 17.76047050113081 17.055061666369657 17.42833719995882 16.728721453092977 16.242078154800488 16.41337413685715 14.638545730132554 16.559152721651984 17.034361290226308 17.34149647980166 14.810946039968208 12.42196011240662 13.49738214145669 18.645514308377418 20.152307527671624 20.497236615319576 18.276566215011158 17.37480455673709 19.7020511873768 21.095196751547793 19.39717887260077 18.463453770352263 18.620424065960293 16.842307886177476 16.789786748371917 17.481199433498805 15.119614743805693 16.046336022247516 15.542300862000467 17.032028105910538 20.31341667512 20.321564044035313 18.601921944047678 18.734332952039043 18.952523253919143 19.68967666731405 19.412630496099116 19.66789153074061 19.447779674276166 18.346336928519328 15.128189370069853 16.622274157976303 19.348517603677404 20.737968837563336 17.26860956119362 15.039961649897768 15.429094980884479 13.231186405222271 11.676424993797326 13.860566261669865 16.16492318365511 16.60450191882501 16.345935150833675 14.73906369702532 15.501953928107968 17.51737650802872 18.324780508157094 18.83247142208148 18.27863746260767 14.168807177741655 15.142916717763399 16.46635020457504 18.596489079901122 19.00052683560102 18.054190164351002 18.26906914763946 15.74549092509429 15.505657392151557 15.767842270662806 15.449307087810386 14.627196480722894 16.99743871015997 16.990231231559683 17.435358219778283 15.70361228615649 16.830216890630126 18.20376171870735 18.8600501873185 16.95302594201196 12.943861676965401 14.42946604744504 18.036942320571015 17.732128612118938 18.99776065392975 19.841702663032773 19.285293402730684 16.473915785271558 14.598185802043968 14.671904554556676 15.40319299056561 16.76878389554992 18.74323689001316 19.687399701062844 19.930279699728533 18.13874410327702 14.908011352758638 13.63400170490907 15.98506673170178 19.60801197111536 17.82848022413995 15.463535415407804 13.952713471488053 14.107442553115323 16.66507303311426 15.943683669259508 17.98750945485189 22.297684448609544 23.469852759266594 23.2365746188799 21.01238026338665 21.69924250002536 21.216700408902316 19.20110272059161 18.734548953405177 17.988425816546503 16.605923985854215 17.67669102083192 18.38831775701188 18.999641906121653 17.992679349715083 15.531264956807403 16.36510021837922 19.989218866424128 19.294215402074453 19.043576323206395 17.322097884338998 16.733911392401488 15.242509507086055 16.53688013433397 16.48977043244477 17.047874776818123 15.567156447831078 13.075534474334173 12.702430249834924 13.91537513954667 15.615467218841355 13.558442150247407 14.066047461106846 16.153036201260342 18.553818465218324 17.85907089953173 16.273396277599133 16.098537557798327 15.097030044162398 18.42822013369081 17.628499177848827 16.0027827392241 18.023972142360247 18.52007737229848 19.13258695059125 19.164150020514416 17.985740233138777 17.086666964582555 16.197073331852835 17.197294608220215 18.567730491141557 17.1406209567606 16.078617761123027 17.626427964385847 20.106514950809743 18.194771023354146 16.224861406063205 16.448487201325793 15.848386556572674 17.775887981650026 18.857017270448605 18.679642369198703 17.154745928772517 14.794237621230073 14.912185014975623 15.31158073045074 17.78308527026474 16.319220603303354 15.699308163739603 14.76513701639912 14.61638154310845 15.975905194354594 18.289690983302954 18.564761816881262 18.653503978837094 20.5338394752152 18.394543841395965 15.282781770346016 17.250331173752038 15.89278742765084 16.847937898427922 17.380848585528852 15.71927267276742 16.838709024091774 18.190632913908903 16.38037512374886 18.13045017117543 18.257044327962145 17.962854124383462 15.563511414557821 13.274976724246867 16.044521827337256 20.327230219145303 22.29842676750671 21.39202582934335 19.447128802648248 18.959661060800315 18.477690424763683 18.66226686868424 19.27006851358025 19.10656810759054 16.994343774472963 18.725752875804474 19.270725907507405 17.51323669568434 17.299474237557746 14.58612904356932 15.8063481666952 18.99437909580844 18.495071087501646 18.041038944467548 17.053295883469573 18.27492683272607 20.421609560526672 18.887935215391852 18.023543126595975 17.924079411523195 19.446206834014554 16.533732491482844 16.296925234801126 18.080663605351326 16.112012411937002 17.354425135953218 16.609015905167055 17.61187321473571 19.88257455734477 20.014963333716064 16.13444404714186 14.893997146824287 16.21211625889755 19.7631657052679 21.424447166409397 20.715893005766418 21.186395680800572 19.32021905007261 17.356401844947694 18.473470001173407 19.997931473726418 19.551900575140298 15.445707177979239 14.092318608310128 14.288358643202436 12.618874900055292 12.595387512132277 15.788532272777669 18.18089357348517 17.33948922686284 17.850705320145284 15.052626442843826 14.933058557075764 16.834549915338357 18.58986898321035 20.76342744552911 19.76221519385166 14.449943960509087 12.97824505569221 13.777733509919624 16.961292060204073 20.606936997058423 20.971095842759453 19.49263016500137 15.382720769752696 15.16927500258692 16.342394330848382 17.38625386046618 16.579692254301072 17.83459911611412 17.872981535643987 15.748384749510233 14.770815359294037 14.525441922398013 15.160396687998992 18.88446540606118 18.895061834096158 13.765351121927791 13.01856929034608 15.400126201143195 15.83865634669848 17.183522246003495 17.813605847700746 17.80055078875495 18.022714417728874 18.194506929807705 17.74847026099455 18.20198895829152 20.023125546207837 20.021326346772447 18.009514604438102 17.38719740170842 17.055499381890048 16.78924847412545 16.533384173042204 17.953796776672352 20.26116858290693 16.66200017703163 14.475569540637954 14.032813788380507 15.65951041424446 16.83039898388344 14.404273982152176 15.462142119208032 21.23914562875885 23.638966109933623 22.968717764870128 21.51925640527726 22.579651014644284 22.97142512395529 21.745588250671254 20.33458709977168 18.73831620231671 16.426337362664285 16.32700980758723 16.240273826718738 17.32791771874599 18.9241653022187 17.753951530203594 18.306914739794404 20.25984266841314 17.901856038740764 15.51308844382934 14.364103418516818 16.12340020873784 15.003079363065476 15.791202405291218 16.158942904220417 17.44483457990332 18.07113746017086 15.895987704925805 16.150972731372295 17.599947634804902 17.2712805253556 14.794000491839688 15.304440863154614 15.987876549361154 16.617461139794752 17.993950332082704 16.296724573661226 14.558080610708078 12.997814768503615 15.734901777519276 16.473666121589872 14.992511938623059 17.03561035078474 17.78750869937724 20.314016133960152 21.54847625258423 20.978933346792818 18.483183072455628 15.592890920884809 16.745498458211692 18.81879786824571 18.08240367263883 17.276205581426847 18.558929471456015 21.08147045428129 19.395879207423402 15.285061836756915 13.977097973496317 15.67953383072232 17.20494191578798 17.12593564274957 17.664355669526127 18.21979240045824 17.13067436217311 17.177202641502923 16.898193431088 18.77381198340118 17.5062367661297 14.451548616934247 13.615770568193776 16.04263606484131 17.47564263873018 18.787160051180333 17.954694688656282 16.35687277053367 16.771928110673876 15.188434778981806 13.070686493621954 14.070485182793707 14.607471681901687 18.07864097537938 18.22487513459661 17.286035441045062 18.08753798714872 17.001809910771065 16.173750821399988 18.66636932327847 17.866861980445666 19.220319125135322 17.236949817487716 14.63424066485017 15.637956378573676 19.856072368768995 21.474569450711797 20.409512667677756 17.747767058547584 17.56451109237396 16.24136390830488 15.15121201094657 16.266557759535484 17.51920849888068 16.829354761765995 18.589847245673674 18.260057168584495 16.45227453770553 17.409292246117534 15.752107028036553 16.289667690594786 16.084082422086883 15.65732446993782 16.74006913770503 17.622259570555297 19.328525235261854 20.0332107549443 17.61921236638412 16.677899559384496 17.427985373544765 20.25997637605344 19.353739632505608 18.59255695929021 18.545833503241585 15.83197280810207 17.420274838229993 16.28264810905812 16.014965334230794 16.126691420095586 18.19521562080337 15.796976748263967 13.737933180742605 15.275968961805033 17.28611750040717 20.534554055402403 20.692199547390363 20.993253251641956 18.678074189758398 19.79969375692485 20.581283420726848 17.916421669068658 16.103540167620757 14.17945245603121 13.25120638634398 14.697868892272085 15.451329059183301 16.239766980563356 17.672263165716306 17.90074364659269 17.4964873578456 19.061595582335368 17.588786942749117 15.925138957259747 16.002376995731577 19.1322210636657 21.47056587540634 20.36874503286913 16.041763442481567 12.818299196782917 13.198368742723051 15.906004340264111 19.08489711527516 18.460026658298425 16.520300944425514 15.18491422167594 17.454892322309636 17.38932943778007 18.431783701951005 18.084027493277468 19.157202940067233 18.557999274912934 15.330675801695476 16.678445433420926 15.072872383906619 14.813458020764912 18.14865684306782 20.141870106693144 15.727103764444314 14.828663696691327 16.14600583498759 16.030215285529096 17.507708305195802 18.970650501776014 18.51439485304063 18.975729291420546 19.74719879436076 20.027820008716272 20.80182396113751 21.9014434360613 21.881925367136105 20.739984628427088 20.50638869275032 20.625433479777424 20.0488781702226 19.00744959537972 19.64256322736563 19.96751534093384 17.31913496626934 16.53588306788554 17.1362739506338 17.618778328663872 15.738069382090417 14.207404340628356 16.083735247158724 21.224102785671533 23.0248972615199 21.56398874838273 21.305221794495793 21.13348460020459 21.778244218014137 20.843815453662604 18.58303471799442 18.57362595042013 17.73660221820707 18.583299432348724 18.470777476161242 19.60725248937897 20.129402538174332 20.310427951194495 19.7179959009703 17.40446319595657 14.505810375713592 13.478901295596145 14.032552949359106 16.333284473354144 17.057932289391154 17.311431142291653 16.85978651409346 17.956367191098472 18.60643714201194 17.722373142942246 17.71279162689077 19.05529184216259 16.40764210609117 14.253423255419158 15.33197269805399 17.4592267831459 17.924568539585415 18.98247657696446 18.082240619135927 16.328110658534694 14.36741427922808 17.026692646393187 18.344915395109815 17.647733744817554 20.54795798138107 21.051862248018786 21.847550481471938 21.89542526338024 21.37395056723737 17.303623460296272 15.38273000181496 17.28232734772002 18.726962793377133 18.46368630715658 19.705999101861572 20.98425514777259 20.84321791271345 18.68228641762189 15.089549541505425 13.946449923358614 14.880660497777583 15.898431798725097 16.567782193105167 17.905735751231518 17.4767216205641 16.18211431829992 16.639796737874885 17.07385693704962 17.91738622569541 16.49311934796983 14.150686537016997 13.794855623138098 15.626713262561571 16.780428184032303 17.27064559282714 16.30049165898761 17.331710896077073 18.552147160550884 17.511731003909247 15.257538099626387 16.132289533624334 16.925137066885668 19.382619194889696 20.233063133730568 19.98878824330097 18.99930756139803 16.62800326908995 16.5133793468464 17.83028625986614 17.313013659570224 19.48913490228652 19.57620328116635 17.748731182381974 16.493574267344044 18.27538094145734 20.27093417421959 18.406316370292803 15.369015428121328 15.522717470681938 14.757906331103516 13.653696187390233 14.991736209073578 16.305642942721892 17.186755246562882 17.207488818364936 14.685328503994892 14.325953141454455 16.98482492505763 17.548631464205613 16.89576789106616 15.357009934820281 15.475150457789987 16.419859215626275 16.329896937148145 17.228899502844992 19.04040263884645 16.262348878880097 15.106890298537712 16.605808889556172 19.776712756691285 20.199939644355496 18.848920800437472 17.130240423735884 15.544867808088288 16.532034259468908 15.202967526415078 17.147762936161236 17.059258458029507 19.33575882110317 18.468619241488213 16.20690573604811 16.184618355706096 14.962887600592932 17.09159296383576 17.927314786081006 19.26906054079647 18.44974255348097 21.221157011513924 22.164052357231483 17.90394567363415 17.21768051511267 16.402193903765898 14.352073216199427 16.735410784983564 19.490737450485632 19.64638374249907 16.73967085101053 15.573170107378703 15.71301987297327 16.207968799781348 15.612882217770933 15.716453905709095 15.43758559322778 19.54479498283828 20.315440747845575 18.60565168582011 17.04681169146978 14.087686143608401 13.769431556919123 16.55075924732293 17.127522742907594 17.307724079204984 15.26795235841723 16.443600846649645 18.835968990445323 18.408841272968033 18.14861996457501 18.319395693572993 18.25051320727903 16.33491923995949 17.309233248019876 19.696231559677745 19.646721510110567 19.17516219000196 20.646864604364787 20.9685976611969 16.486463092879898 16.06482808659719 15.865291762103997 14.03436262677189 15.546658284977076 17.187174616587733 16.532685979756902 18.80089170537527 19.245277250119912 18.04730751194228 18.06836290993832 19.596593783554287 20.971141469890906 20.277694073341568 19.042698489779973 19.98225633352806 19.594233907239236 20.704452615431986 20.756827214087952 17.9495569422771 15.96289973836351 15.866718702736197 18.474027505161715 18.56064697541908 16.65765493049255 14.844101825805625 17.769586625523797 20.06811078576297 20.685670529517246 19.92110775130293 21.859616591427315 22.00388213084839 21.770119443118034 19.049900867107727 17.250244607327335 18.336951319077972 19.690442431973818 18.37813061105605 16.79791388142089 17.478583350862483 17.473326836144288 20.748322435058896 20.724932227221508 15.822094830781129 13.304464735240527 14.522724429389429 17.26891941692641 17.75447391375732 16.494905385498047 17.720469070206658 18.8937850999351 18.3555284710264 17.20923631962335 16.922863994452673 15.900964647409923 16.70613965369918 15.187398719311775 16.00060656112307 17.390953078891997 17.939347104220584 18.984299026691172 19.59453942364628 17.861210099889988 14.921890671576064 14.06910391086946 16.763204301870868 18.69654904970305 19.674380932278435 21.198014260051327 20.57114648556274 20.093850255224606 19.609084421241594 19.398154932418162 16.001314006381513 16.31922368350611 19.49712994122819 20.009687900131166 19.630883269012127 21.64615420874567 20.84949731887414 18.848742133411267 15.884545831050932 15.32136082964815 17.64295512223874 17.45519779060018 17.596956151629836 17.661260024075016 19.263798945661776 18.426406574910395 17.553936864983772 17.859349887789087 18.85507551933001 18.836190265330842 17.30104316914166 16.37000058405299 15.664285068854445 16.949246816748488 16.331148226487414 17.022367762024448 14.8524219133558 14.790031494129751 17.587721262431735 19.67377946817808 19.39297307793219 19.655612333686108 19.039674150193704 18.708407116988166 18.08598371702554 19.19678733312948 19.01542119558284 17.88638050544027 15.899890864190686 16.394106836636166 18.50095231441475 18.49775125729796 16.779810186994478 14.27789600806449 14.433444574996242 18.68525049399431 20.013819181291357 18.092200665453138 15.3500137416632 15.125651883983997 15.293104573355444 15.58650933392195 17.67181417790189 17.185015785894453 18.956437539446224 18.49013475812604 15.407450980917874 15.222833883221396 16.0368901086415 18.59863684915754 17.246245188896324 15.608176788259236 16.488700722094723 16.328914015464846 17.510149813149507 17.654780713526556 18.819918411333596 16.6147321223816 16.608229337875176 19.024175005900585 19.35757811082323 20.12293410126202 20.51245424276408 19.14679065725733 17.213898091186728 16.578861315084986 14.30957025141874 16.49728487199175 17.71568121959133 17.611587571983865 17.4793228333753 17.54179099678145 18.384920304490294 16.596052354140653 17.601821296936784 16.924012032702812 17.294137180680394 16.866145618648858 20.015057409644985 22.488437520465293 20.0967062860455 19.975572374019055 18.800232191273356 15.49906041648398 16.980442047343793 19.659999649946844 19.184067565852754 14.982493462237167 14.540564727595763 15.392474924906903 16.191858189515287 16.63766871942117 15.961722362166718 16.271182114133584 20.415910101500373 19.65412611392066 18.910446009131483 18.03102543865488 16.619110267276263 15.393785184461956 17.226582911818564 18.089628000131004 19.720181947047966 16.7725618564406 16.412367734168782 16.97100595078289 16.11094795910393 16.1716618632291 17.991732133874294 15.949539673437247 14.970723842486167 16.34721898952473 19.43924513673081 20.836741790182813 19.93958169204517 19.948745548843267 19.3948716314901 15.11299959949477 15.034359120286602 15.675401333172822 13.345900624644132 15.409294320176668 17.339323333928746 16.546976120017494 18.566415282023925 18.872745391147525 17.06820563429224 15.452822339297835 17.513632597002292 18.882189648201653 18.074226097962185 15.900230084016709 17.40789802946451 19.79952849898184 21.88942667112729 22.730193016198022 19.581330353261354 17.805749330454525 17.154959212179683 18.771916319380956 16.71370996644368 16.01930006905199 15.779113784739332 18.22753062500731 20.26820258303355 20.886789433764573 21.03581445780872 20.75328416100816 19.27184443859009 18.909418987112627 16.439755468250997 14.690606992210565 17.283345371820783 19.953858211527386 16.865606681049435 16.94565007564573 17.410532061451587 17.369690963565855 19.183463025447757 19.54148986147891 16.193488130605996 13.400971975939958 15.203143435136615 17.09422023422042 17.839093002510218 16.654206407973607 17.106448372157118 16.623810591070026 16.09670189090053 17.345322774660403 17.13243033427637 13.736431218290967 13.325801678655617 13.75687714318039 15.57547775064334 17.11369345492067 15.572822314395417 15.663028259207445 16.799063651161173 17.058202354170728 14.937648279523167 15.309338462666572 16.81057216835374 19.762132243993108 19.48751136179372 19.440758017064503 18.25026032933958 18.591090867814657 17.42220460920392 17.526867123543912 16.30892726679537 17.3162768468964 18.732578193239856 18.00012781054368 18.132535148073675 19.857471269611676 16.44246825426756 14.830243715822563 15.572032935938175 17.76538562393791 18.348434162356426 16.42359779438289 16.63203850554501 16.923530213485932 18.956346005967855 17.889561151230414 16.010455095011984 16.409514753474383 17.133305259886473 16.790098980508297 15.564004552270418 14.916974322895603 17.631494105575975 18.79608887953912 16.966202948949185 16.576274881858684 13.47249805121444 12.579151317689742 14.011390058212363 16.864023361978983 18.964129399482587 18.39327878257889 17.841968390312065 17.760979191487998 17.963856954746557 21.02868336077839 21.12862488302658 19.891501607003807 18.340258390921484 18.38268166334046 20.042926462767785 19.957356426471723 17.874187122616185 14.083183197569486 12.763781176730504 16.495433609814256 17.63424197872732 17.229328669633098 17.376222386952822 16.530098482548038 16.61965645887585 18.1343467083669 18.507848873444548 16.35632790091741 17.686840893047197 17.868316116978534 17.979697270074816 18.297895712225298 16.50814235017479 17.653932910977623 16.015741622208864 16.607152394064176 16.41284329246632 15.69014702913685 16.302233681288534 18.570995672374256 18.864131775747076 17.68224692934525 17.49011130830728 19.40801063617576 18.462936977987578 16.640486255433192 17.71484246339597 16.4370858532689 16.475642629570494 17.24602873645424 15.090114792284206 15.856604203922494 17.313283407802807 16.540055098913115 17.083329799294827 17.780401449752354 17.404027777373155 15.975064507596349 16.945124676686426 16.811730041355737 18.044832159051463 18.46184249297007 20.463365703990306 21.2754470361407 19.22502704232029 20.20414531043881 18.32048634890789 16.21252396423839 17.300497908600466 19.568565443302678 19.212782577956293 16.17198933905938 16.80446832246 17.058194426036597 15.776172781994678 17.424746031286126 15.46686118336484 14.640338203124022 17.485583190389473 15.694522035864466 16.948757064662992 17.718368893954338 16.82459484666189 16.30772757190974 17.918728450233363 18.532432352904426 21.23917923694788 19.6193978336464 16.383247282508883 15.217264879892593 12.703761495376739 13.588933811419809 16.928866829948028 15.319948527482502 13.87523432628791 17.58917928376995 19.92405