# vtk DataFile Version 2.0
Ocean Simulation Step
ASCII
DATASET STRUCTURED_POINTS
DIMENSIONS 200 200 1
ORIGIN 0 0 0
SPACING 1 1 1
POINT_DATA 40000
SCALARS Temperature float 1
LOOKUP_TABLE default
13.282019612669727 12.533770715103303 13.906367756515328 15.676145401523005 14.893310909571259 14.909443869453227 13.875757462245101 15.766965313799087 19.008010026925948 17.268702189167342 15.230435170379835 14.623333427442693 16.56413980046718 18.417415988069212 18.323757491767793 19.81878482227485 18.84234061183744 18.461307432814657 20.123855184805414 21.379779043454388 19.165886910635844 15.725425403704971 12.942890014743902 12.67674330756647 13.522587092576567 14.12902534040266 14.817195311309185 14.145115298356222 17.529998671491843 20.77530975801821 20.14531004462449 18.381128616822895 19.450853843024838 21.05374590133336 20.747580270469484 18.104593380705044 16.54695162542686 19.39953838134892 17.99968017325143 19.40764116702262 19.69819748663929 20.863049440908096 20.340725019812858 18.610442553442198 20.215103929077376 21.343973158331107 18.477235266099367 15.929796899442074 16.262484999350473 15.394113708898654 16.98149879392727 17.609413461853617 18.22342184918596 19.87656088647624 20.619229588141156 21.4355699023523 18.04548568633789 14.795944350732299 14.640057070989663 13.335337290526908 15.087489364969267 20.491373226009642 22.002034529456715 21.656881464739495 19.455552870738646 18.062395926237656 20.058991008657635 18.0046526868333 15.518303381231778 14.195650325802116 15.633503515662772 19.339237087699097 20.921346783070607 20.84255543405403 19.513890888590765 18.36481879045701 18.79649287141569 18.28402069570098 16.90950990120198 18.16989056659042 16.679243833739122 14.70169686182461 15.341513683021468 17.646543918458143 17.39193004180264 13.695644879426881 12.725308956956692 16.46760965054052 16.48173952347384 16.51753280605408 17.57527699920724 15.506610391037675 13.174838344779493 12.315713137893443 13.78953533462755 13.131121181463316 13.01286955323126 12.566334822543038 15.173107071374941 15.951550056272776 16.273218348738833 18.733835806192737 17.458543847831752 15.816370200104583 13.327193236773258 13.268311681485846 15.808133978869428 17.983706161371483 18.09484047864986 19.583770518807217 19.50651180342149 15.818650062218504 17.487447623737726 16.94279865219843 14.744528674237646 17.119268405406718 14.841209567038657 14.565568605866124 15.614652356750621 15.615771397514315 15.802185430523886 13.95150491460774 14.216111105761787 16.98465641082449 19.012015312199058 16.75746425172489 16.97100191444102 15.667104214922693 17.16819821621608 19.10259060606371 18.8456863415424 17.27856313333664 16.563646109697874 18.367407918697143 21.666376296665373 20.95821561652568 19.55294300785987 18.92808698289477 17.30082697838793 15.595585455263395 14.548642535866982 15.962415709341682 19.019271513997023 19.93880054920221 17.7276010991661 15.365113903456628 18.683473241335683 20.02256325993226 18.91617324691851 17.73042551949897 20.565496338680276 21.211350436081524 21.26135617833119 17.134503378542025 15.804657848609205 16.845529893106914 18.054699619402967 17.289066532300854 16.173638612167082 15.048462767055497 15.452744773709933 16.146288548575217 15.586248891627362 18.563406483341378 20.367502707706787 18.860930486878704 16.444866569639988 14.965677951566256 16.59471573155917 17.305129332240146 20.320375017084444 20.09205517928109 19.228649973546325 19.817825728927637 21.046562073022496 19.161934601963996 18.8402076410292 17.28336053025004 16.45547852834406 19.665812827567922 20.446260248412944 21.3736115648645 17.152266282067032 15.12272895599198 15.311827022709737 17.88408882372242 18.455879011456613 19.682163241449615 18.16916266261816 16.685734945544944 14.445993207342076 13.951918178273816 16.533110123187676 16.30205910310354 17.14846793937404 16.104305291896026 18.11179962569989 18.489890916138684 18.90069403777342 17.24263896119475 14.022033048661946 13.036459716306487 15.997834734847334 18.548676993474707 18.100528044942017 18.360617932613724 16.16077287372781 16.987399692328925 18.904673700766242 16.355413372171032 15.186924254204191 15.259590985556395 16.838299883709578 17.02028022958167 16.232231942576774 19.930914214523735 19.858597744524847 18.90089315634095 19.640550378005752 22.53097926204464 21.39236455389311 16.74392181598107 14.027353489152759 13.069731840841415 13.611910597758737 15.672038191774218 15.48583089160241 14.307697900677152 14.752557453881046 16.196404290982777 17.14396161688113 17.33673533741565 20.47101781210744 22.867700055872984 22.495710773918148 20.9085855483113 17.542058385004605 20.28751220723518 20.103364350585718 21.04463621376266 19.850027216587225 20.622979163198178 22.118517057802368 21.572544183117916 21.010463139061294 19.624087539751628 15.965821389296103 15.481688680949123 17.30175766139105 17.157005587323454 18.48459673163905 20.299002536878433 20.91893368273055 21.660309679468543 18.941222327175975 19.15220083640679 17.917678756122843 16.40468888442417 15.720536262407279 15.02995511697044 16.875086041319044 20.43558523764985 20.600312172128444 18.137967358335487 15.8624160455521 15.299508646585844 16.95588975259971 15.128504342417811 14.390663208476132 14.16176620964835 16.62637347479334 20.95210140502915 20.802123965716902 21.25929190238551 21.506776030630387 21.409481633878645 21.97293719532549 21.08868579992438 20.905514302071985 20.842587101669455 19.782905705450656 17.380454111165296 16.996063886010937 16.579296822566473 15.380390290516628 12.947076753213214 13.23104364126681 15.596218337611862 15.4871977732515 16.764214509524788 17.255800444959146 17.304573036473133 14.788921359032926 14.023683863934421 17.20129368598728 17.206900130799472 16.815396297944623 13.81135301902571 14.977965580673184 13.750764210034113 15.303070556768155 18.448587355546923 17.070501892566273 15.593903544164762 13.815553876458274 14.445095407541977 16.681157615188013 20.86981626493892 20.642621125508125 20.07203777410834 21.02630092886043 18.784944403519336 18.795670220556385 16.210947929801357 13.774256127424847 16.442165479085443 15.401421654421304 15.349480002264029 15.655728224374004 16.65859744052027 16.05257997723189 13.431718957082442 11.623143736803168 13.904011931726565 19.238088153036642 19.947890047203973 19.282653259042927 15.644084405677663 15.232221660810739 17.37426496307376 15.935902546460374 15.108921428044985 15.294325447946141 15.694795040958065 19.096765635279418 19.325658841791107 19.520615851598095 16.379823684971566 13.635110554134764 12.761215462626316 15.214326448321248 18.288031388405493 21.10969773797844 20.155308980862557 17.00627539530837 16.844785935921394 20.787301357959418 20.23555000367649 17.88011545938583 17.49152895630866 19.838872729750804 19.969132012587583 20.044196528966737 15.763330224931874 14.838084581083388 16.29631627801015 18.58176071590437 19.500275882727546 18.131893852462298 18.551831244933826 18.89217260968015 17.05778641687252 15.69092053719182 16.694275437271262 18.610893100423997 18.67708633237273 16.064341716444577 13.7799607959096 14.81824501244023 16.93942691120739 20.549393139721634 19.082175888639142 17.99677921069671 19.274253991613623 18.852813391905677 16.01203797291551 17.434737515040975 18.947766145949924 19.243284853163512 19.7084025698554 19.741527633053373 20.627163505155263 19.647124301646283 18.01247393640592 16.834037541918583 15.97985164380483 13.97971976183369 15.346207657417375 15.721520679961168 15.962423758316376 15.172424074839611 14.929888877552491 17.31345619464825 16.749329111428334 17.527308967411088 16.9198577028053 16.645731953609523 15.551883627398054 17.656956688272953 17.01367778410336 17.454669827294442 15.694067826428432 17.160169656045888 18.788000478672622 18.364798863685362 18.54185063275425 15.518889977781923 17.632731964541115 20.01721083147995 18.10205950396702 16.51584158632982 17.0611607691199 17.297872761095384 15.195589695192 14.015289168655979 16.305476708805465 16.412299517672643 17.594783449767696 19.148866032976816 21.220998677098518 20.98328757254144 17.58180412664083 14.718358923511639 13.074403544539981 14.788267689812496 17.02016050420724 15.940481492132182 15.291629897289763 13.456235598048757 13.35835961338301 15.145122961599114 15.979831510666873 18.48499166047224 22.29633563546669 23.619107542468267 22.964148564970294 19.36377126020164 20.743163119340853 21.94963532719372 21.500787428971915 20.05897635034844 18.417294687277035 19.12029408446948 19.813784400698573 19.267889102088986 18.663772514496966 16.035135274877373 14.542046385947058 16.812689163434616 17.915062489890655 17.08048534687715 18.512093161287723 19.20264760565288 20.268655261185145 17.859950323299817 17.913473455878112 17.44797474350838 16.36132202840737 15.04368935236862 13.987023004683081 14.291582390877982 15.620318212115322 16.988016407567493 14.999800193457293 15.294759386774418 17.39664639274788 19.24609863678472 16.752710033605883 16.472315196124907 15.853711613751509 15.635948607244826 19.7812702653913 18.59949483493297 17.609286902886126 19.001568607945433 20.410747100510957 21.776338886283618 21.64184501955209 21.0702152334648 19.97736341532302 19.591935393203435 18.372408230033784 18.856754401250654 16.55141104011037 14.524711836329814 14.108594213298073 16.310463386023006 17.060510979577238 17.334633059804652 18.679629148247358 17.325855084050914 18.567993834417912 17.625092836433968 16.586583424025317 18.331258245769376 16.75417813744557 16.85337414839926 14.476364774389777 15.630317894097905 13.509215857221438 14.3533666218526 15.672852886531057 15.605993945702915 16.97852891088409 17.311261780690188 18.487698057928167 19.423864870491453 22.219312105235936 20.471752144969706 18.073822083751907 20.347070382588043 20.01251037475206 19.859945769059603 17.60481389214375 13.973430738692239 15.463987526785257 18.44359712188206 18.065522310495428 18.29402643219399 18.67375748099124 17.223421130416526 15.748362754321024 12.299257839408398 13.563142364106692 18.22571178854446 20.94618192832951 19.704077098879583 17.75197320102053 17.04270201209214 17.429148131890674 16.714354828036274 16.21486144452149 16.41763146146283 14.564952657401317 16.526075991979916 16.98863134792621 17.347542473615885 14.7673375286322 12.352071865484337 13.438594063737481 18.71492296277026 20.199777878350776 20.542951430051943 18.25636285564544 17.335634552840432 19.733334803030196 21.15348420439526 19.39426318900357 18.46375787538203 18.643723820107617 16.797078758971068 16.75504876492681 17.480530513874044 15.068383002584659 16.060796706998573 15.502882061217228 16.991007808939056 20.35986389684244 20.364419472219875 18.608532227634328 18.771843224934 18.994922453828192 19.74020412270788 19.413305238892832 19.672974304661558 19.445991482847848 18.382450997241076 15.070050009874947 16.609304929388998 19.379735714672666 20.802067966560607 17.25597167830664 14.992064051436472 15.428926346427188 13.173803822267825 11.58456809983827 13.803178675347674 16.134639946337487 16.577412092073942 16.309986525560053 14.66052430809173 15.442660103623396 17.51542729312778 18.328384467002248 18.84325572569621 18.324068501069952 14.114788463123686 15.160439804877692 16.493365426236053 18.658403728235427 19.03652915696011 18.04283910886382 18.294497987596856 15.715422512210862 15.483736457817448 15.756448412132153 15.422387489171332 14.564321273194821 17.007344552732942 16.97571080689897 17.46669113295494 15.683517418336246 16.84846970535977 18.23695980816048 18.890980851426463 16.93814572656705 12.85239840760176 14.3898187879469 18.085113457984367 17.730953430272415 19.04640820791754 19.905537975319294 19.344688897415562 16.461197097379614 14.546902600258793 14.617005555100883 15.358129703315642 16.72012936415263 18.736687896036017 19.69651886494124 19.96720143301996 18.171340434950356 14.870452812189122 13.572607306548592 15.963700648492612 19.683538661183064 17.865930996363968 15.466969230559867 13.940565406259145 14.07366673193821 16.713299011324587 15.930570716360863 17.985555736213275 22.341078645132814 23.480044299234326 23.262825335627895 20.993738200681605 21.71218490126486 21.20682686228463 19.134503129533837 18.70736017314434 17.983397274759408 16.556531003809567 17.67297913347201 18.402818307372048 19.037483415996466 18.018339382404697 15.484609442948365 16.3110694379713 20.052431996003172 19.32567495421402 19.101180027150438 17.321725998403487 16.713180996077842 15.189303934216415 16.545167573422898 16.476795328930713 17.072318324021843 15.556910495603358 13.015562752553597 12.634615731097966 13.854353323955793 15.623755183735378 13.504315210153061 14.024486389005602 16.13866155618592 18.59941418773115 17.877933541567547 16.256083008004246 16.126601903349258 15.068090748783046 18.485619674725267 17.638958116030455 15.95906570310801 18.040897439175446 18.507598913900825 19.099209239353918 19.126730232777053 17.919884782985612 17.042763496214782 16.149361486167134 17.1863604851492 18.59109759666024 17.133071582970434 16.055401374035487 17.64341923837198 20.180909398086193 18.193694371194535 16.200502102915966 16.46082673987178 15.808133429322776 17.782108237497837 18.900642239773724 18.7259029290275 17.139973527687324 14.724062108695561 14.86613107665504 15.282183253997704 17.835886857556563 16.32603568919104 15.729922328360885 14.760071634065717 14.57561790513666 15.93980469166716 18.315779921145097 18.573419938637787 18.650561594304847 20.597523284018767 18.416915564707562 15.22401405543992 17.287501864718273 15.839898952082043 16.808201969717977 17.393293322237408 15.69237176331487 16.83718368967715 18.233999753380655 16.32775264680493 18.140072001551168 18.26110318547473 17.979087316273837 15.543424359774757 13.218924846412376 16.059393194427166 20.377015228243913 22.34984255626728 21.429641475817146 19.466759298460904 18.993430482398214 18.504177531174957 18.714169694942825 19.34020908844195 19.17065383541467 16.980615408328134 18.76162729451942 19.328242314327998 17.50898578488453 17.350763224057648 14.556070007661129 15.80497373598994 19.06612802138725 18.506170664260075 18.034485774996366 17.011892395398895 18.263565547043637 20.47107295362417 18.87029218284112 18.01582903228023 17.906518530054363 19.492554275036245 16.47358244173977 16.247252118785198 18.12138572149411 16.09204868663757 17.387768708003183 16.605287529244897 17.621554258940296 19.939030251239014 20.071845093484118 16.085006609784745 14.840718319097618 16.169936059893516 19.808922721535716 21.478292811559136 20.713430004386712 21.23027343994782 19.33801390762211 17.322419336450714 18.466111839298634 20.04633195200736 19.61325843381435 15.411367095288488 14.076338816444967 14.292446966119861 12.56716574634471 12.534941324727697 15.797527772393096 18.238526603740475 17.330719718341715 17.888469659581567 15.001861863489166 14.89690775657601 16.838461790333145 18.581985028263663 20.80810203132097 19.815274325426874 14.396797246510276 12.935088961304373 13.731575325768423 16.94983173799875 20.67221757999234 21.045545962063986 19.563390138924895 15.340967780343481 15.127859372926537 16.339197851799728 17.415008181654283 16.563190176284273 17.84180518526766 17.879193529536266 15.71609243898742 14.734327790626214 14.487950465932297 15.10057925186996 18.930952596496564 18.9553745589767 13.709066074475393 12.953757271474208 15.385357040903143 15.807750735873237 17.168544440969324 17.78636279817215 17.774598287380282 18.02947598584649 18.222438758416125 17.747413153602857 18.189413101333265 20.056369547220207 20.03613671978774 17.949271065770883 17.32548553050438 17.006270200618065 16.775358640697636 16.521312057020403 17.94699725734318 20.33169348889815 16.627657379178654 14.4263691071203 13.980196587380588 15.660025014497327 16.881237814367456 14.354891897103217 15.380953786748709 21.262959257289868 23.678011676935032 22.98829860282574 21.500377576136543 22.61077129880232 23.0183387529147 21.782997159511794 20.371441964019375 18.75525741351614 16.388751727002074 16.289971557999166 16.182866541913803 17.280852472231043 18.950126126835027 17.73253395137422 18.29762519029075 20.336608144032326 17.922647232868655 15.484855600292116 14.307083958283945 16.146078422870858 14.95947413102911 15.772353665773595 16.139231026175462 17.44989072277404 18.120666776241308 15.880873956887601 16.15841633070032 17.640905727962107 17.31953930386277 14.781913083848448 15.31631661303332 15.971563762701315 16.57539076510395 18.01726273334708 16.278808350464104 14.522087687765131 12.918122347748033 15.714205465250558 16.46575843319258 14.918823965948995 17.002826850227528 17.727387716328614 20.323940048187524 21.587960662952806 21.025375184802446 18.514791137160696 15.547571138671204 16.725986934836946 18.85149336540238 18.08931370009222 17.242041547223735 18.529644569454906 21.136615869110067 19.440520220159957 15.248784555516938 13.921088424402162 15.68905638086038 17.229637861695863 17.106968023623757 17.650356541743815 18.25591093577618 17.15351694644555 17.210298627585953 16.89009795269293 18.824851863756994 17.547609124856656 14.418798906205993 13.568431649574542 16.0729651462897 17.499342298246244 18.829739489370834 17.973828005520435 16.301676737296095 16.73492299146984 15.137200443242063 12.994588199191641 14.021954972139678 14.54022915601947 18.11326270648731 18.223311992917488 17.255670247907673 18.110909156690017 16.990781607983212 16.13366421618532 18.71522270415719 17.845610191824047 19.265081400391892 17.23602800039812 14.578811775488274 15.591353629954613 19.89461246387573 21.504952716621588 20.436322302281052 17.728942453341944 17.583140928075046 16.231251174340745 15.107654706259801 16.247093892718745 17.535586601012767 16.798064460459916 18.6241335919469 18.302084147922454 16.434486207517786 17.441760925062436 15.72237479593169 16.296545921699842 16.06355216464783 15.614333306462996 16.732245557392634 17.633504210977986 19.37179085455424 20.07075997183207 17.605085796138027 16.66365165879627 17.410021084402068 20.31164820607412 19.372449588473998 18.606303148572735 18.59349995240124 15.787029844411675 17.458584704135202 16.281782681034674 15.982787025879402 16.057288366264913 18.210748063887596 15.76267453463414 13.663970154444986 15.253200645515953 17.271556265201045 20.592948766447407 20.718479599348807 21.03588245020992 18.637426101898864 19.813752438705134 20.62220732682478 17.886173992149434 16.057480853995447 14.133907721663016 13.207456339451243 14.688524663520028 15.438386243321737 16.23512242079272 17.713914524213802 17.927915952359445 17.495421370083385 19.13487658730695 17.638003665173372 15.9197273188337 15.96833958388631 19.14138731906708 21.524434466711007 20.42621636528494 16.03670863606711 12.767152906844636 13.163833592654662 15.88316253853103 19.128905169554898 18.458725090021563 16.49655143334276 15.132498038233042 17.489098367783814 17.377123345351173 18.45982509055155 18.08183386670039 19.1968855671631 18.611367603795493 15.281214280854373 16.698507706031137 15.017570762444862 14.728197749793663 18.128156680174836 20.21206135031341 15.703238805088775 14.811989069758706 16.171722722285907 16.03670911387248 17.53143652533149 19.02107544187941 18.53311560555385 18.983512988448364 19.772780433114274 20.06650593873064 20.853325697019674 21.955398902370305 21.921181068594308 20.763297014572 20.55038654301254 20.675814323518118 20.092382835744406 18.99749662567248 19.651234767878687 20.016090058765545 17.32091570962981 16.550696583127493 17.15554692163751 17.653538899016333 15.712852286143235 14.165013775831738 16.0392415023208 21.27043006724105 23.076187848249454 21.55389602704241 21.29658511630833 21.100155549089475 21.78139679511886 20.86681390752533 18.55466668513602 18.583317568340757 17.711810498904544 18.619113788415373 18.498552310546415 19.659458455673573 20.172696239697324 20.3395329283604 19.739244178150678 17.397180595048013 14.464330820146921 13.431795536587815 13.977621834856635 16.336753192790948 17.09068370489226 17.330415884229108 16.829072191718904 17.96173247758559 18.64206032265556 17.740224771875464 17.73290997405104 19.135504637609227 16.405705369188144 14.19622200746867 15.299728228707336 17.487164782465918 17.92035984571633 19.005678149814884 18.111422292452307 16.364110443793855 14.3373475647516 17.05695263220817 18.381815025269642 17.616442144674245 20.602548335178184 21.08728335786143 21.888811151377443 21.927356149186473 21.434680355147872 17.282648258447363 15.332123217880609 17.26967508759974 18.730025514353112 18.439645559433437 19.710209965623537 21.024991823224582 20.880847805861833 18.718884811162585 15.060755598587388 13.886640930775025 14.845110794214692 15.870824214013302 16.543997363862957 17.912557056779264 17.467943195433907 16.13953768648067 16.621849926247158 17.05260590493826 17.921825484340637 16.48351416757677 14.10420359485728 13.755782773660206 15.615560587362433 16.784893914050816 17.272063913521432 16.277144170361666 17.36699768164683 18.603803421726184 17.525808591573437 15.205012768976138 16.118521734032186 16.91005258159064 19.41913459650129 20.287335862949643 20.03260739244718 19.022884127062625 16.58738358446233 16.50956042726283 17.856206319196314 17.26621233943422 19.52337256741455 19.648976174897143 17.81182956137757 16.492871947933715 18.251118770009228 20.300706953083292 18.40078910301396 15.312007805114767 15.515956032110635 14.741304928266612 13.593834531713807 14.951311856834366 16.288724002248895 17.180952371159762 17.206123837563275 14.618776544101285 14.263946990976141 17.012551578252463 17.568345539789554 16.90745987972432 15.330227152946328 15.454481187033759 16.42901696837275 16.29362399429723 17.192771759124533 19.08016859423471 16.22829639569182 15.048460781187556 16.55469485695329 19.804384874315996 20.227268960670298 18.837392006378103 17.092636179161094 15.498282403512173 16.546770992570355 15.167014267223786 17.188353632416813 17.036893507121068 19.397939952744547 18.521194673402 16.19558974829418 16.18417173143224 14.887276447917575 17.063995285180347 17.903651980506833 19.294430802847582 18.426864397011627 21.267088811617803 22.230400427352762 17.843443527692394 17.202514630886053 16.41380003473638 14.306058845450801 16.750231980392996 19.557013728785897 19.717703567971405 16.72995610156016 15.546570734724542 15.694771998546848 16.18951115723118 15.57387664863805 15.716822112303879 15.377523091837928 19.57416465726948 20.335173020704456 18.58131479135366 17.06214866707438 14.047609431180453 13.726958606313447 16.574259827223912 17.100710041701017 17.2940546228108 15.206543574466975 16.444992915752007 18.898308167206658 18.440981314159288 18.16119610844575 18.326797290510612 18.28427290330214 16.316465991239166 17.33994307126996 19.75469072917803 19.68578927419804 19.19251140180988 20.691431313394084 21.0423509949868 16.466334661361476 16.086700173448026 15.881146934777812 13.986543637660953 15.52659509103593 17.190892828120578 16.481200453185615 18.820310226496975 19.26050017151058 18.02391146974921 18.05181125742825 19.595172665746336 21.004321491827028 20.301110766418894 19.03716427723367 20.016133340628038 19.570395200908706 20.720353812770476 20.77720107842792 17.903044485485026 15.91114448140038 15.81860306992685 18.51045851665465 18.609674338541204 16.673328250075656 14.792125897421492 17.78994286325424 20.07060350415228 20.673354948824027 19.863784674818348 21.895579131711486 22.044774097639923 21.82502126047374 19.048349604062114 17.233896586498382 18.342373883743672 19.73523084211285 18.394685179546563 16.75528701766567 17.465136170758957 17.412297295621176 20.80315962762902 20.79781028086575 15.77679932871777 13.253655472750337 14.51094979188854 17.3279661020109 17.78575686486358 16.46095006140926 17.731079780786253 18.9563416163411 18.38937802448234 17.183299200558213 16.919891940585917 15.885659439992105 16.741217934572 15.165229218114696 16.01766614317954 17.42365644652683 17.963207360737044 19.034075072389196 19.65351044270138 17.878924894098322 14.885605704290134 14.01687628290444 16.768443892062486 18.698143875021064 19.691741266631112 21.24460560823827 20.588275244297023 20.090598059723856 19.60488384664452 19.430363037104822 15.946518508491087 16.289276780239266 19.555790695356325 20.053015947378924 19.63310782997895 21.713074556415705 20.905597406758982 18.87990940511161 15.83357626597152 15.268106388698765 17.700508164254806 17.48889200749916 17.625309307459148 17.66412308525645 19.305800571301777 18.441609615718573 17.572503859721383 17.879638648756305 18.901753467607985 18.882404136567825 17.320936505558354 16.407012747957783 15.642220210635813 16.963868035362854 16.306035855221904 17.054646010873363 14.830435943352231 14.756687840227912 17.621858304684658 19.749458965930476 19.43366561613232 19.713846572637056 19.070773369312473 18.714347073818143 18.04701654802508 19.18262441724779 19.00297980819154 17.888276638302802 15.842879547564408 16.34182387291352 18.519792292902416 18.489453842131848 16.747385197319023 14.216820447631344 14.387417771426287 18.74250085995512 20.068689336318062 18.10684607946089 15.303105932648608 15.103514324116468 15.284318258591673 15.561232203137147 17.718030224577234 17.178939227288474 19.011184724679033 18.537130923211286 15.358147189303876 15.190588681864455 16.003487537698405 18.659588346855724 17.265522038645482 15.573693567774617 16.511274395975708 16.31994186011999 17.546497323804953 17.638277965457856 18.85225071146466 16.5847187300347 16.590151948324475 19.06731594819571 19.356715711095124 20.161917742032976 20.576239143045086 19.201794811832006 17.225233055517112 16.589529285265463 14.246475682002437 16.507650103885076 17.74048716790201 17.604810402429802 17.47103126655627 17.54462120929066 18.44528251138698 16.59049777739238 17.631871811391058 16.903982792067886 17.27429817855081 16.796327518616668 20.004157973013687 22.554055031148277 20.104899654557162 20.01192252978143 18.85210584389756 15.454184102085108 16.9672111428721 19.69410529343098 19.216739473513247 14.91311052436795 14.493576151847732 15.372372174790376 16.20028364944968 16.65172657313204 15.959340730427414 16.257016152877313 20.50560775434813 19.6875508815955 18.93541055899607 18.04926424923639 16.641848787284193 15.369426634762277 17.236150132251954 18.08689066787197 19.777185424472027 16.731453720987787 16.403414972864976 16.984242394998056 16.113293516508225 16.159566351487463 18.039726589832412 15.920973161984772 14.934334049037048 16.31855090100195 19.448605915184444 20.871607794611972 19.92970608906163 19.946035273674923 19.424243275888035 15.045891823764384 15.000121342810262 15.694103938334804 13.283622322051311 15.403826767145349 17.362879173096786 16.52903580969998 18.614175180672802 18.902706417615224 17.056432730634302 15.390000448204887 17.511270792154725 18.881819272936276 18.057990974310098 15.834447713505467 17.393458850854028 19.83658144754484 21.946202612223683 22.796784813580533 19.558988002553626 17.777540356872763 17.113675979459597 18.814908587219307 16.69863537620555 16.0113285198861 15.737811538937558 18.222176776078058 20.29941429835859 20.91440183739776 21.06461624015358 20.780918609662205 19.269143770131574 18.935382809503572 16.42279296631219 14.62499825594721 17.274794071452664 20.013212792353535 16.81365222094124 16.925460785332742 17.3782199244279 17.311151196710636 19.179278748656074 19.584232624541183 16.188101172542833 13.343468199267166 15.207845806293944 17.132867407985447 17.889062992617152 16.631812303973554 17.115540503206148 16.62018482777722 16.07118345785028 17.37557842102266 17.167589736593516 13.679138652541246 13.270650355289987 13.71327754522699 15.579598694960982 17.143687289999825 15.521907489920245 15.621618070599439 16.798261748993315 17.093681716116034 14.911007924956927 15.298870767015552 16.777843758954383 19.79109278431999 19.471740003323106 19.43672276815258 18.2177380779362 18.60564154665157 17.391275600270333 17.514558969469675 16.263335747215642 17.317365025913432 18.74511955339391 17.96033502505133 18.104239160005573 19.911348256297845 16.394405053799847 14.782888971819615 15.564360966854325 17.803029620919784 18.403089128439415 16.415218074170014 16.64208234013647 16.895078980258553 19.00474996345264 17.89988675559928 15.972530014168777 16.393571244726957 17.12457035237224 16.763713965066046 15.521481328461697 14.859474290300227 17.648703107425728 18.82953362679452 16.93197258715169 16.5822234465064 13.431862752302765 12.541824821411874 13.963778765561912 16.848553576091955 18.997090336972615 18.409001675976484 17.83492533732727 17.72646809843612 17.900475738130993 21.06418550849619 21.16227278928278 19.93025032673953 18.332988914406364 18.376713704255703 20.09768126836358 19.997006827502563 17.87678929216125 14.028205303717101 12.700158187180492 16.537740965986217 17.637687950102304 17.19025854508771 17.380836423361554 16.524433059867913 16.609853055223525 18.17645887614612 18.55903294351442 16.305473818246767 17.67299785377565 17.873451432774203 18.01647176943832 18.361293145173565 16.491478638130634 17.705848501471042 15.993661385311496 16.636072731992893 16.439613580875967 15.690194286812346 16.299394409800204 18.61186687430734 18.87260754302516 17.669515099347528 17.46785128895007 19.453607046897645 18.479484252646547 16.589083076225922 17.725361983836628 16.412655412137358 16.477829288420455 17.272840392924117 15.031166013265725 15.818760743886253 17.331999827103868 16.48750017792262 17.042655463005676 17.783560060004167 17.42561863776369 15.953018013701433 16.963959945496285 16.80903326131547 18.086351813629328 18.461799529109467 20.489104193801953 21.315011001371268 19.19084067844043 20.253154413547552 18.341151446566858 16.178992016007136 17.29341364274883 19.624892480139167 19.274847742233444 16.15046415747242 16.84110874831111 17.111131910969895 15.744978699205868 17.46761989292618 15.449961257326805 14.602189160522913 17.53393404087461 15.631535424849575 16.927057327339764 17.733767925439903 16.827242833164767 16.30860398316746 17.957301355810785 18.507250298966284 21.29599494381139 19.649484457428336 16.348246990102886 15.198308501895792 12.63382826495886 13.533600365327416 16.952123959