# vtk DataFile Version 2.0
Ocean Simulation Step
ASCII
DATASET STRUCTURED_POINTS
DIMENSIONS 200 200 1
ORIGIN 0 0 0
SPACING 1 1 1
POINT_DATA 40000
SCALARS Temperature float 1
LOOKUP_TABLE default
13.474211029348304 12.68730606382528 14.0121296576589 15.675768902530372 15.055451285019052 15.005373724913698 14.064183607876684 15.792078810099689 18.719274553015627 17.164348087118984 15.273867801924167 14.76506314264152 16.57181015236406 18.2885001488606 18.30391368560703 19.625041158131143 18.822722323558622 18.5853423627459 20.096188713460645 21.210498719154405 19.177344349607388 15.863403148486475 13.195600391631618 12.853336113626131 13.632310626486419 14.204610856177414 14.767143284286599 14.335455341466144 17.479128655854716 20.46474652038525 19.945956860855965 18.34887888018953 19.357349063562882 20.839258905488627 20.57651975572059 18.1641657657462 16.76443072258465 19.32351994260959 18.25060732192918 19.439541097747274 19.76280928336439 20.744010718924756 20.217570423678545 18.72032414283391 20.16470131792406 21.102013960552988 18.41460656959369 16.047922258984734 16.22479434071256 15.558824572998814 17.024026489654545 17.698354037208208 18.259200345205745 19.767816742126758 20.48191426534465 21.210806122229226 18.148669770192907 15.064439414098487 14.717025474755406 13.566951871319972 15.265103622785134 20.237347211434372 21.7631206035771 21.362180476247712 19.28750215415541 18.071643125573587 19.7686498922147 17.849341802843238 15.487178817174508 14.277234768070953 15.664210713904508 19.181987510697624 20.733201959876187 20.633129611570727 19.409334852111307 18.34756075395479 18.731630958187317 18.354024018485152 17.18344968201792 18.167903554439324 16.7318054100646 14.92932691952948 15.48925794166749 17.503722918845288 17.22200118154249 13.825366263147265 12.931347456253897 16.247115926758436 16.513961740056327 16.656329841693196 17.48411449530891 15.595236582771113 13.374834131011458 12.562950663491108 13.859608407321787 13.27521752006785 13.098542656152661 12.766011001875981 15.16392215100419 15.935360660093584 16.380906348005674 18.52686928185156 17.376969770922564 15.772326386606524 13.47512861777527 13.498477036616777 15.97174400713795 18.084120951551146 18.22841443723655 19.433675298296887 19.328428356397907 16.090098432171075 17.47745813941532 16.944713381759254 15.000798886332882 17.022590862555163 15.082336349791937 14.753994011353104 15.616737365958793 15.692140715197604 15.684478732339915 13.991396061501957 14.293328760073951 16.90356210201542 18.82684320613186 16.92545221829975 16.941907878745862 15.852456813229251 17.177458591093586 18.937705115452687 18.676328422300323 17.180266645567517 16.576705396502668 18.270508640560706 21.32728339581351 20.77911343466023 19.49280694809013 18.73891342128652 17.12968125883742 15.529477565572076 14.68885996054275 16.119649305985646 19.025831419395193 19.758927197582445 17.697882451817676 15.68141336346461 18.663297388281897 19.89172331383772 18.957533347275554 17.961523415500814 20.381763014813817 21.062058274209317 21.043085837217678 17.238845684414148 15.890009513229657 16.881236600415896 18.007022403415537 17.363886262626185 16.255812892617296 15.240969016588972 15.611648337914287 16.24712169082786 15.893561767862396 18.568800438053305 20.17660798881942 18.771624354816716 16.44740098839335 15.056015020170204 16.531227312518045 17.347764202328783 20.11255563012337 19.98727641252071 19.229677209278947 19.80064394675691 20.82520820254129 19.111115541628408 18.71723132314688 17.388816702781916 16.70392663037446 19.542982730951053 20.384243286586663 21.135075384943796 17.340791886836804 15.375612281744147 15.466360564901898 17.70644474077754 18.295409490633645 19.412740163348488 18.06265960095843 16.67320156048565 14.593997524886564 14.104625806632866 16.418150747782054 16.368986241701283 17.11836968347444 16.270037883691682 17.96995365977618 18.43275106761497 18.798858635569236 17.13732036589694 14.200946972817007 13.270780067143876 15.948456525370528 18.33283965150415 18.012748228907522 18.142192158949612 16.16610622655973 17.00331552278631 18.776245973804087 16.504659045211863 15.291694957510611 15.36357497026744 16.79312483922986 16.969802536817763 16.394734152871568 19.64451524876165 19.654542459798133 18.89958723163105 19.717424231954332 22.28019341782743 21.15617884815576 16.809355725328754 14.084636626564807 13.118733665136347 13.711267214154148 15.580860873160827 15.440673682632056 14.402250323023571 14.849360796006007 16.243361031428183 17.154031585795856 17.435004250692867 20.32871411820525 22.66602585765952 22.417563961207257 20.81442545330241 17.80604400047467 20.1643401509601 20.133646514664473 20.919598533959046 19.92368068062348 20.57395413433817 21.856699757459438 21.389022513088957 20.879949425969425 19.56447645334936 16.18358719541038 15.556279601428047 17.17028791134252 17.17341869499779 18.394446800814706 20.083845669899937 20.750932458106455 21.40502584680904 19.068461229214687 19.134996014965793 17.894567145080956 16.37664408747861 15.655499751384976 15.024147434640124 16.774088204367292 20.122068727612575 20.40959686266419 18.15711007978241 16.043355040770976 15.568055594707616 17.02654247602918 15.34087368204058 14.534454936536276 14.330923990536313 16.623276302899303 20.672269383264478 20.737913738541163 21.093925331918175 21.319277972339137 21.275698102445784 21.785214192246833 21.024432897776663 20.764149290673597 20.666170705943724 19.604256071690898 17.393459803931357 17.002336240436936 16.587402166655284 15.380008993298794 13.128798531837928 13.411671506841918 15.592254131157304 15.64628741919735 16.79806812232305 17.25169565340208 17.188436760111053 14.903885475987035 14.207967141817466 16.99363127720168 17.016816820995775 16.573131208687645 13.947151397013316 14.923379912112964 13.932502188789652 15.36582394994922 18.18181600633353 17.022848041296736 15.64286031133323 14.024052125606866 14.619844659052237 16.825770172895318 20.643227124926803 20.52387305077025 20.030839295840643 20.81725713902578 18.80063840372393 18.686566064463467 16.296882403358364 14.017265494779155 16.29740706890508 15.53108934596601 15.44018265995531 15.779216153208543 16.634610562115654 16.010988478940995 13.570811658922366 11.909709461156886 14.125475573602806 19.01641964684716 19.80794577176641 19.100293518507492 15.85000666956922 15.472430062865694 17.310103045298177 16.097602675558623 15.274416726819066 15.397582844920855 15.868420112095706 18.976213597006765 19.292857721889167 19.313473004821304 16.42898158975899 13.80145141794249 13.025558766959712 15.34614476201775 18.260835476129817 20.8620604368544 19.990031327055807 17.160798982202426 17.05412617120436 20.55044194844711 20.124552948892443 18.016515682277245 17.648631810046403 19.669146318555892 19.886769030326835 19.82734855883482 15.919052789093344 15.013432532992375 16.321706463704356 18.450382874543514 19.360867331453424 18.204225321628243 18.419372508116933 18.675254810569125 17.11343029962952 15.934473265145055 16.905653813391705 18.646383873974305 18.613058103649323 16.178705345378585 14.007405582144212 14.99897728708291 17.099816370150005 20.354426289473263 19.062423464447626 18.018647611536647 19.082712467820933 18.62926535675425 16.12448234430607 17.354186014067263 18.73236554528101 19.044085726301834 19.557710723386787 19.60657583005442 20.3845395476831 19.446372843742058 17.93376286275066 16.866819939867295 16.096470237701972 14.284446540793711 15.46651717897491 15.8377362128022 16.052524971490094 15.31542822393017 15.112630731218422 17.209423115259426 16.74311690976145 17.383693227155167 16.85857545878587 16.625384678318127 15.747051576394538 17.57549835999498 16.933082093524135 17.243498222197186 15.715772140868895 17.107626334879008 18.67553446256003 18.38970875619415 18.353862962060283 15.636537069060255 17.496576410447936 19.732895020205664 18.034652520160712 16.639534546291685 17.088142481960777 17.26819899974057 15.34980925115218 14.257133280550127 16.300619186493055 16.54285129021164 17.630096079902106 19.171963058578648 21.119827513956665 20.834306696914517 17.59010650694199 14.74933155130305 13.224413913473256 14.8115045379673 16.940620847976085 16.007010699478286 15.220773574301127 13.592939461711946 13.569337599940358 15.245886859092717 16.097324239230215 18.588807783323333 22.220043758652277 23.491540149650028 22.784959315608067 19.546627351191734 20.753682343022366 21.788799578013496 21.355570941108702 19.99551095405235 18.57120098952441 19.136615358764793 19.75090309281837 19.294664510631367 18.636940667983595 16.154656510574018 14.759579533123066 16.772215181391992 17.893401870549255 17.300680296115264 18.57059982804756 19.205824692024454 20.05424320296825 17.894248339554103 17.888232402750674 17.40598206003611 16.379399468994812 15.099066092000362 14.046303977496937 14.370044720332453 15.735959877974281 16.94703893765628 15.151118020405729 15.341664462327847 17.262126840379064 18.969299161649605 16.813739161649956 16.376519138231426 15.817556814186414 15.8141049227249 19.572000694147018 18.65138007607676 17.7760750659895 19.05861505766393 20.37240105302349 21.62295949001047 21.506560288858726 20.92453091392464 19.9214559514659 19.43702165862953 18.35024869665196 18.67055026998433 16.584930813347345 14.679935481445522 14.300242648620776 16.286391200582944 17.02860592789967 17.262101317095162 18.421556501933356 17.359748098611618 18.405966595444667 17.560813700242498 16.671410750438255 18.117759868581093 16.75331027537372 16.684935896790897 14.614867748062796 15.567126850626012 13.739033831614265 14.46180575956292 15.689787943014172 15.676510170443954 16.85098022679071 17.246491638896444 18.32975267088355 19.357077077564345 21.926808634757567 20.371098133851824 18.21611018557825 20.153196938994245 19.812817682341596 19.62166435358182 17.493368446478073 14.229233647051437 15.606533390969686 18.19413737725919 17.919641682353582 18.19123701693312 18.510961971572943 17.20033974133397 15.584848404269039 12.494484074965332 13.804056296885499 18.26705241358728 20.808113344842862 19.719974781408816 17.78692812513058 17.09136401457952 17.42510126616807 16.769428860864632 16.316424911974586 16.40519901840674 14.847193976287873 16.65358900344203 17.15870308414169 17.326930585055884 14.933146288953782 12.625341093067437 13.664110658088246 18.451999789497307 20.013349751155918 20.365845325347294 18.331959941523866 17.48547677939024 19.614728547558276 20.929717710394087 19.4007093328427 18.464476517303474 18.558269820914255 16.968983067192145 16.890145106904672 17.48242278265559 15.264052366534827 16.012232129862763 15.653442064185093 17.142557335243083 20.179458044616272 20.19780953854627 18.57982932653569 18.627555179139627 18.833435318236944 19.54842764988965 19.40765228475871 19.654466676220736 19.446926536203982 18.25053642074097 15.29306868238598 16.66277000995288 19.25889117930038 20.5531713353021 17.304299512786457 15.174504925473796 15.432526741724717 13.394881838467093 11.942313204284309 14.02461231630909 16.247024542220238 16.680673814817318 16.447064613857947 14.96265538941028 15.669078572992715 17.5227408717357 18.31350244409402 18.7977440485726 18.154120632587027 14.322314766344473 15.100313651830163 16.391532234503 18.423585720406646 18.89636929111928 18.080495038350342 18.19545739893509 15.830774778065408 15.568884532079597 15.8014360724997 15.526098736158566 14.806017039111053 16.97278035534565 17.025046295149025 17.34806948850465 15.758806460236555 16.78038478660572 18.110876490418203 18.77120982289371 16.991382535087137 13.205006851111373 14.543331345571772 17.90262182953544 17.730612500886487 18.86228987981439 19.660885141631148 19.119077152165342 16.51058425291484 14.745950329262175 14.829299424420224 15.536458207958281 16.904981382056057 18.76311291610514 19.66240547563813 19.827121058187462 18.05156314578916 15.014845412891551 13.810152321963232 16.04405860622147 19.39294837639228 17.723325413150206 15.454352390359134 13.993088428319187 14.201985911526188 16.5329711890303 15.981937539801772 17.99740752077115 22.174673118763465 23.433518041708048 23.16057765905634 21.065503193777968 21.663462645012007 21.24193910117869 19.38311766690329 18.81078229047728 18.00808445224898 16.745536519825258 17.69017123119341 18.350003654920233 18.89494888059062 17.922526560494354 15.666400892137402 16.513519275025278 19.810882146790387 19.202449661537447 18.88495817604936 17.32437879689515 16.78987571734216 15.393413819935146 16.518443793774207 16.52434939403636 16.981542542423753 15.595578771677733 13.247630086530227 12.897695409096103 14.087033066594318 15.595756534434532 13.713077542545388 14.18496581604415 16.19147681098824 18.425624253850742 17.804879286468005 16.318181424727815 16.02502190353215 15.1795310781054 18.26855502609759 17.600086483520688 16.12894343427539 17.983170667896967 18.558434241149705 19.224947619163892 19.269026446325444 18.167723092339422 17.212019002562027 16.332500072386548 17.22974906608667 18.49949018075183 17.16162250269313 16.14657897628392 17.581006081977513 19.896226151512007 18.19184899895965 16.292584922932836 16.417344129236625 15.958723901986009 17.754646264599092 18.733440305442688 18.552066095735874 17.191727283850135 14.990549773591148 15.040862363825882 15.395046905985586 17.634387396049384 16.296717132933004 15.61800164890353 14.782734452195179 14.730864929126279 16.07329239616087 18.215627360276713 18.536006661095684 18.659636604373524 20.354323065643833 18.333842370357743 15.448588383910481 17.153809794980685 16.04012859731588 16.954678715553438 17.34859409223265 15.79860840085494 16.84287298650711 18.07059498666741 16.523015845908898 18.102264202326225 18.243074355044502 17.915988501141804 15.618892479468023 13.43641695694728 16.009982259504287 20.18419259952516 22.14731905009061 21.282604797678214 19.390280014638197 18.86323356874298 18.400040210655497 18.5164506032654 19.0720435594255 18.924906030917697 17.032575736210198 18.623947380207813 19.10995626208789 17.519496560489298 17.16015538275073 14.672186650248383 15.810770925361563 18.79252935306997 18.460342100555362 18.058697349791114 17.16936495089929 18.30567486774582 20.282423767487956 18.931844913477793 18.04782597649236 17.9715126113821 19.318140081571148 16.70183878348777 16.436683151125646 17.96933034130281 16.168504123807256 17.26057937782417 16.619197926134202 17.586225697897042 19.723858708417765 19.853842389138627 16.272594073705733 15.048696673019366 16.328182568232105 19.633822011042977 21.26956786022992 20.71528168269338 21.06170824239991 19.270686697214206 17.452325165541346 18.491422643812626 19.86087003279135 19.380283894228622 15.541515330010089 14.143548620420553 14.281569585535559 12.769239117157486 12.770637497942428 15.764784721876483 18.021567130932002 17.359915485533165 17.74746864027939 15.19473702158115 15.039477058844625 16.828317063226624 18.608153866813442 20.633453919492478 19.610021584950054 14.59981578548169 13.10531731170133 13.909046614802875 16.98963641442381 20.418112076511623 20.757992308084127 19.294897598546683 15.501270043642275 15.28577053084521 16.353296927777777 17.307796111156847 16.626999444410878 17.81239478476942 17.85134349650448 15.837812114622984 14.875802956480786 14.636810405648083 15.328406548079084 18.755192810050982 18.725617359903243 13.927962586701742 13.20520185902046 15.442279289565654 15.92552227016409 17.224113680182736 17.884736509879826 17.86903463377622 18.004145489052966 18.118381194022398 17.751452736845216 18.234613294638404 19.93067856593013 19.97999708075421 18.176983372985966 17.559529625726586 17.191289661352727 16.83087049071907 16.572036593042863 17.969987356235944 20.06126060952062 16.75355442225571 14.615604873181233 14.180793402483987 15.658148406795586 16.691251740656266 14.54587974175575 15.69089832495093 21.17051861867526 23.52487841588778 22.91241077101405 21.570153451596294 22.493068148552535 22.838064105235446 21.639776054903887 20.23267201335076 18.69131556734856 16.535694415535144 16.433126720488694 16.40147835053328 17.45479652471675 18.85228707723334 17.813243660156964 18.33126333572953 20.04359846679644 17.842135974785933 15.592719794722653 14.525378862205708 16.067374883704236 15.124757619610659 15.84545525616459 16.216696047082458 17.427465854589663 17.933205010201245 15.93698257087915 16.131605451703226 17.48236352867977 17.13577177003811 14.830419102864486 15.277445986035579 16.033971532777002 16.731067713014575 17.930405358999298 16.34630867881704 14.659657821891058 13.224903443893052 15.792212263930484 16.49826614092865 15.20299937328534 17.129920591504167 17.953853456595343 20.287239564367333 21.4362919720051 20.846678180120225 18.399408799258346 15.723266817530273 16.80157919799131 18.727552148749055 18.065172421823934 17.3730552511084 18.63541693083453 20.921532434308894 19.269229483284782 15.389138884258204 14.136370528620006 15.659331991057826 17.138382314406062 17.17664992963769 17.69908784143815 18.12066952865506 17.06999329679181 17.088464458198576 16.918673285287028 18.627409833140703 17.39084657352272 14.543439238316576 13.749484261488256 15.963040920906355 17.4077243036866 18.66533238288097 17.903239068046236 16.508757650696676 16.87377399429849 15.33460144318176 13.293310393647747 14.211733900424894 14.798228852295827 17.986911963007817 18.225176630725926 17.367834577603045 18.023969428161763 17.03312241476621 16.285741132955355 18.532688993087298 17.922717494787072 19.09480929809594 17.2370894246584 14.789921990885546 15.767107397526688 19.748788229739212 21.382085739646374 20.332765189710926 17.799380688333795 17.51309688295947 16.270213415229197 15.27387876686163 16.320265674945947 17.474076078588965 16.914127869779847 18.492391584134037 18.14336778315486 16.500996665102036 17.31770232970931 15.83270297016982 16.272893043051294 16.140404842041043 15.778404230140255 16.76342512075648 17.593567476168836 19.208717775574442 19.92260269172653 17.65988894598316 16.722987631569147 17.47946079254769 20.112774122590366 19.300080245822347 18.55422379126488 18.415550425204223 15.955236194804895 17.31417526331836 16.286959009448125 16.105163258976216 16.31765410559797 18.151348595596282 15.895059200562493 13.949586074251194 15.346469648971292 17.32610688538617 20.370789151903583 20.615154039679503 20.87214453706837 18.787573631166733 19.760065792506513 20.46559040920262 18.001038937812343 16.232699004602875 14.311926359093919 13.3790089114209 14.725942739586014 15.48710748434647 16.25037769122226 17.555759389950882 17.821486880067752 17.495207025954766 18.855019737953963 17.453857607011237 15.941394402733811 16.09954500519434 19.104437756599612 21.313971825597747 20.205230972579546 16.057593206040096 12.966918701304278 13.303242948901532 15.96803623052794 18.962226551799457 18.458996010059508 16.5885191509575 15.331693273974137 17.36270893887614 17.417906407329422 18.35260808306938 18.086692137801332 19.042152685701776 18.410574453073192 15.467555603208318 16.627666910952982 15.229580489701652 15.05605675798154 18.20102751554649 19.942511665276296 15.794449991552046 14.87721076742683 16.075410507692652 16.013943627672262 17.44083292229877 18.830051600099328 18.46363353350162 18.950155993664787 19.671275955411126 19.91774046131583 20.65567282975336 21.74511279753403 21.766118037095445 20.672795997000556 20.3842604958331 20.48195212305092 19.92829746579937 19.031796035990386 19.615537065400563 19.83114016461631 17.315539640633027 16.499278292349956 17.081064690388715 17.52007725801695 15.804554511375471 14.334447963078363 16.21017441298089 21.094010131248528 22.879365312841724 21.59158415506474 21.33057285902418 21.221851807022915 21.764241177818974 20.77949985843581 18.658528856679748 18.54851276292105 17.80222126061893 18.485234069239716 18.394641006517407 19.4622295677652 20.00695618154465 20.22427928404168 19.654280337115367 17.423940244790103 14.625449532721063 13.61703975666979 14.186939724649795 16.321934931734294 16.97044007222728 17.25925282651948 16.940936068725502 17.938960155765628 18.505154821735584 17.67078501856863 17.651968522604097 18.827961629401607 16.41016692640834 14.41333318339642 15.420348246492143 17.383538656602983 17.93280178790282 18.912121544904643 17.998113199065212 16.23270817750816 14.454426535733015 16.943522811359816 18.243230150170362 17.73233795683416 20.39588012978948 20.95081651689766 21.729105454662974 21.799194349726523 21.20078778198341 17.362447949620982 15.528976047976435 17.317841100024733 18.71623633267407 18.529213854245768 19.691476298133626 20.867511731294265 20.729741638250523 18.58085674265219 15.175655229386532 14.11557150226813 14.981568166264209 15.975197126143499 16.635661299850888 17.88707740594838 17.500098244009642 16.299093104915436 16.690028889499374 17.131169755399135 17.901261043779787 16.518571157965788 14.281890551596618 13.910186943942632 15.65706976933013 16.768659951010108 17.263519085924823 16.36319142474041 17.237479468806427 18.406597893489256 17.471444311988552 15.40488696959826 16.173704950546544 16.96763466029246 19.27709134349807 20.080598978093597 19.865628430032015 18.933256606526644 16.7398380276074 16.53034772944681 17.761693606249292 17.43919619045218 19.390790681195654 19.371225484036678 17.576745127204205 16.498571937404982 18.33538461205726 20.18526765418052 18.42080361762196 15.531197993238955 15.545897155773586 14.808806937378327 13.82650882903053 15.10647752036011 16.35449474696104 17.202503894322188 17.210761478210298 14.873484053590287 14.50260702659829 16.910560597522924 17.490055735934924 16.862345251847007 15.434725135804884 15.534573729471436 16.39870996511212 16.429125810471774 17.327084073968116 18.93037958474648 16.36018933327747 15.275296730657946 16.747581331499852 19.69852150561029 20.120074877662343 18.876905594554806 17.231734582366848 15.676929414760096 16.493203980957958 15.303003071780237 17.040033613966287 17.11782940019956 19.161487853919475 18.322718385171047 16.239336505961965 16.188728510970275 15.174815556760166 17.16856865076358 17.992535794049665 19.200229260139476 18.515249357271898 21.09139153992949 21.97519636788494 18.069649307383074 17.26295137538308 16.37328732139459 14.48298429891193 16.694540288071988 19.301207227470456 19.44417837550093 16.765573906332477 15.649491210617718 15.7672466731994 16.257642236362535 15.71825263384956 15.7215148759237 15.604831559620457 19.46013820787666 20.255458380975103 18.66624649299113 17.007254903538765 14.201823617048321 13.891337226231721 16.490430381714386 17.198823508195414 17.347366055807406 15.442261595624453 16.443220047341708 18.658915397459708 18.31615861144236 18.110601015813614 18.29364149137636 18.157043962388546 16.385932286366604 17.227492300084723 19.528885841098415 19.53547619156974 19.127798442611034 20.51961471716573 20.757453568738114 16.54189041223465 16.00747484646172 15.820446884729117 14.170106909057575 15.603676403000714 17.17673553760675 16.67375251354879 18.74602570771436 19.200156390994362 18.110565055678656 18.116173991694378 19.596625874155187 20.875786730277905 20.210889724172702 19.05600705745149 19.88809466878432 19.652763626063898 20.65788446661024 20.6978560731606 18.07852713864465 16.11300619496873 16.00224331449732 18.36962089067772 18.420901293945384 16.61634055518328 14.990718800294497 17.718902373597754 20.056356072158113 20.718285819349273 20.077259357706605 21.759939309949043 21.887574118262393 21.614271088949938 19.051684478922546 17.300578521197373 18.32029370593387 19.563276916834184 18.333106051556292 16.915320420838672 17.52054505479477 17.640685970388482 20.59444113616398 20.519076639235315 15.946909662568551 13.453965662813976 14.5573536977134 17.105366612336347 17.66343016457972 16.585806600776753 17.687869233560132 18.720101684933507 18.260890348980382 17.2754633781114 16.930355986879047 15.94358722580996 16.60980588127745 15.248382597641456 15.95583614205955 17.298269015814554 17.869930593594297 18.844408298222753 19.426197176129147 17.807205196666644 15.02373056828796 14.217744862185437 16.751707146867716 18.687116809897176 19.626179937115182 21.064262058175665 20.521055639269765 20.098919877549005 19.61894620897664 19.309648592337176 16.15659153100332 16.404763862931727 19.334100885686787 19.888384007741557 19.621365436505144 21.454320396963638 20.68906239135836 18.76271524275217 16.02518684801535 15.467830185162656 17.485123807356803 17.359607239674435 17.5174389114512 17.652255023363868 19.14340993673943 18.38079214657466 17.505100347597654 17.80146649369506 18.723827351010264 18.70574981304558 17.24427904761771 16.27366024001887 15.723732269178354 16.910180105161686 16.39965262208938 16.935326249606305 14.916975315735094 14.881798242641493 17.49061727642837 19.460157260262168 19.273827519722364 19.490278491709724 18.951241308656368 18.692286045399953 18.194750471796223 19.23435500380099 19.04725713059023 17.8852019636575 16.061174315145006 16.539834466215517 18.45178258317423 18.51724584195012 16.869137065195662 14.450930611231815 14.564730079161249 18.525308861830357 19.856012967771857 18.053716642053924 15.483269552826465 15.190869197919842 15.321652981177824 15.655391713122935 17.54513052781099 17.199949896627338 18.803736857817434 18.3595810410309 15.544749493995734 15.316684064858432 16.12703452912114 18.426715952628687 17.19193304449254 15.701112297883196 16.42834082402633 16.349927966198845 17.413202239728133 17.69626422656255 18.73032223458084 16.69966485683062 16.662142218545306 18.90618849187269 19.352774381710987 20.01276629254855 20.330665856889755 18.993811451234198 17.181363884238177 16.549962223446798 14.488354402583859 16.470706021766542 17.647087324797774 17.628833411562795 17.501772482058147 17.531451761614328 18.21689623209638 16.611856607085997 17.52066646602228 16.980345573433254 17.3503857936934 17.062327058531107 20.041316774153625 22.300958881760167 20.07349872973164 19.869665093520737 18.65537105773548 15.62554465827173 17.01717080104273 19.55747928605714 19.08802949990248 15.177004409250415 14.675118121033856 15.448407042704977 16.1716807113544 16.59822016074499 15.969302585705101 16.310988009125204 20.162230804220403 19.557523556986936 18.840958174075183 17.976143799976114 16.558674478852787 15.46174547297467 17.198184534309846 18.096297397431787 19.56249926179497 16.88537582281878 16.440640657250054 16.932329387338083 16.106557162359433 16.204733010245782 17.859483007997287 16.028183470212113 15.076726391696235 16.430671771269225 19.410237439416544 20.73820516202586 19.96369966850426 19.9517449889116 19.312858089075952 15.302705584451646 15.130247220397054 15.62626639223385 13.523496581436522 15.429367109146604 17.27293449344625 16.59679290458923 18.43502825609731 18.786145810143818 17.103343214595046 15.63115478590275 17.525569283728828 18.88062910432592 18.1197020167599 16.087605753470896 17.450730857821714 19.699095819158003 21.72860097831893 22.540615983365193 19.641976817173276 17.887447875772946 17.268074149565077 18.65147131518419 16.753844352054383 16.044405169624667 15.894193129234727 18.238419056446205 20.180352478045226 20.808770270649468 20.955693771669438 20.674029821463797 19.27695675535751 18.836788820364106 16.490125429325005 14.877522180507203 17.30699663409328 19.78594904963267 17.008687138861365 17.00906093739112 17.50269427249086 17.53414578336793 19.192679010504424 19.420459199346652 16.211186814885043 13.564655940547611 15.190436426728393 16.983519550342002 17.699866118342964 16.711889521845322 17.080840059459497 16.63367704922618 16.16672314800218 17.262507952938545 17.03368278141156 13.899364019110124 13.483713604798224 13.881733665016473 15.565517019028535 17.02999791307409 15.712214079179242 15.77806301014716 16.800094131977083 16.962078904010035 15.01301663898939 15.343655105039197 16.898397986844927 19.679855948161162 19.52646999190837 19.451252245067845 18.340553140372354 18.556640519967956 17.510832573733282 17.562795521530827 16.43684382914537 17.319023369953285 18.696251294103163 18.10614063530809 18.209248875536538 19.706274754958166 16.573554262572408 14.966087118587625 15.598576650763471 17.65776023693037 18.193156654455574 16.444701022395904 16.6068341647274 16.997383724479956 18.82205261504791 17.859622420287934 16.116736794309375 16.456177078488963 17.15659729435742 16.861861644145666 15.684448046958819 15.078853288143746 17.583966815119446 18.701697694289717 17.057951785304777 16.559161375655794 13.590289548316289 12.692922814332325 14.145731821837687 16.90374977771931 18.86821146159136 18.34864069201549 17.862874026514152 17.85910540865466 18.140587798353078 20.93027505859572 21.030172966551124 19.78570246283889 18.360067443796847 18.398354888071392 19.89070188642104 19.84408771798497 17.86559016844365 14.241066958750558 12.946885641019062 16.381853575217388 17.621310048456063 17.333073893429404 17.36601439933265 16.54907748404975 16.64582223109386 18.016435189293013 18.365579320511497 16.49662054478335 17.721651363501664 17.851619673949973 17.877669480606595 18.122702719855827 16.550827231027515 17.51171142729863 16.073182371528425 16.528753538222777 16.337514555395895 15.68986884622546 16.30905566203952 18.45687375767707 18.834740048618446 17.718362439422048 17.551107926017732 19.2798041397168 18.418551241121186 16.78218381751635 17.684955383007907 16.502676105039136 16.471179459830676 17.17158440357258 15.256495972028825 15.963465774662515 17.267818599873642 16.685793264341484 17.195096385592574 17.77006970986999 17.344307567221996 16.03630068239333 16.894347200981592 16.81735336315843 17.9337625055315 18.460918456099144 20.38933690389056 21.162107630034324 19.313688522567166 20.065252703952606 18.261499604848336 16.30527800239104 17.319172463908565 19.409954008925713 19.039809342475582 16.231356334238473 16.705042568496467 16.915100175205758 15.85891040527941 17.30510378691442 15.514220411213582 14.749213692011955 17.353916790783064 15.868375791384375 17.00826102833933 17.675446186332213 16.816664647070482 16.307560646673057 17.81585705901111 18.59603276418383 21.07724422260965 19.534944278366417 16.481349244401645 15.273238771393371 12.905608475403724 13.748738625798298 16.86346000282829 15.426299661128466 14.09410