# vtk DataFile Version 2.0
Ocean Simulation Step
ASCII
DATASET STRUCTURED_POINTS
DIMENSIONS 200 200 1
ORIGIN 0 0 0
SPACING 1 1 1
POINT_DATA 40000
SCALARS Temperature float 1
LOOKUP_TABLE default
12.688096541475641 12.144018359371316 13.594251586105205 15.683725901495274 14.346296210037705 14.59621221156281 13.296786247783038 15.692221280900116 19.892704784986034 17.60308857744142 15.122534956375084 14.192915721943931 16.524719569026555 18.805988939091666 18.3443321775335 20.422303586609825 18.8936214576127 18.011456403413508 20.19275137291367 21.91239871302205 19.068716244633027 15.352142079859796 12.19540904329738 12.180670447879358 13.208427026117622 13.896330793701637 15.086982912339241 13.556351660045303 17.663005614469977 21.70867737362746 20.717997625959512 18.492140829349708 19.712347374032802 21.72572948106202 21.282078466198957 17.943614958385695 15.911789629308252 19.68988286472713 17.166765990496813 19.36551785030946 19.464939333385047 21.197912906051464 20.722753102075547 18.225961291975516 20.29632876621946 22.04675316274189 18.689612064118116 15.525788858155208 16.435039779609028 14.850359807920269 16.84174539410064 17.24789419256493 18.10380405087758 20.203346598684206 21.038152028415347 22.109564173656548 17.65908198377452 13.957700805162494 14.472979650026788 12.635089903415649 14.52344483440632 21.259197477998313 22.637613080486144 22.536860681117936 19.998059171715525 17.97124097711171 20.94938555982343 18.501004938841252 15.668261080958079 13.984663642508131 15.577637909005565 19.79629628353196 21.440850668675555 21.47028970924996 19.808553536959494 18.41271462197467 19.026983450081325 18.047899087669066 16.00228312122647 18.1889755427854 16.560642615159825 14.014852013354782 14.90011906545973 18.131281209338216 17.914008818930142 13.324270604501207 12.106758038737219 17.273946573695223 16.341982335064632 16.009964973583063 17.921522763019837 15.198692806688308 12.595144159715545 11.596119439707927 13.5855607032911 12.669551069567818 12.794635413716428 11.987243104011718 15.196483610311363 16.038971497538867 15.85366950547403 19.390971058401 17.670571283721493 15.9841364365444 12.943426890101723 12.626255157305534 15.31866051275961 17.63539196999136 17.60901849398846 20.10447454041597 20.072376405263242 14.939759886088373 17.541010904916977 16.98661146164048 13.943982702961758 17.486236262417574 14.08622165453456 14.011677240810304 15.703027905056993 15.296717856350103 16.247213474874044 13.889141480940387 13.993804922743944 17.236294633600743 19.586651629098355 16.156276009353576 17.15666949192893 15.049839175110579 17.1731630525352 19.607618317979828 19.356090723875884 17.648140883889976 16.51386100552656 18.67161073465822 22.669098778783003 21.453955056600783 19.637212284846402 19.52419074412249 17.87468112574095 15.881819403405526 14.128048362306176 15.481972025946376 18.886327500737107 20.536554054622997 17.9001657765951 14.37941282080625 18.736318992409927 20.480434172208522 18.800487440411064 16.937509796545598 21.181921279400942 21.602736230372795 21.875692410825618 16.783462706068697 15.631392979975109 16.71864571472035 18.206984144241876 16.986772573274063 15.974402922150464 14.438680113727337 14.96737099418458 15.917486631627781 14.634502555293977 18.578485128120878 20.99665168191818 19.145377408216195 16.511925805057984 14.743489153024543 16.838136329699754 17.14595840995928 20.953201453098387 20.36927568030468 19.175963206102097 19.759257049166173 21.693612515881547 19.276046063674094 19.27262042683775 16.901602836132064 15.630745175742517 20.079748453413657 20.56815321426541 22.106190540541938 16.492890265950248 14.308553759270712 14.835278702105178 18.5145279648177 18.97196917052572 20.513940045292173 18.528248093623613 16.748355418133723 14.012230938407832 13.535068978343572 16.941183500158623 16.03188746386109 17.238285148264325 15.507098555564022 18.6431278918885 18.629366857353915 19.157246327587448 17.593944085102777 13.449326326493232 12.32098503914486 16.181114976420552 19.212948158897298 18.342519906577838 19.047978180179616 16.171459405152934 16.877069098839364 19.246094872692428 15.806052596415322 14.94269024235775 14.962479101785243 16.99494916801329 17.226427676743224 15.65670634094091 20.8306677551583 20.50003564309698 18.91602629023428 19.3230491989567 23.273872152064698 22.11412728813662 16.513640112772777 13.922903352826138 13.015255703067037 13.290781882403214 15.991429833968668 15.6386703282249 14.026124725309069 14.483512226206502 16.038115135039604 17.12595419127576 16.991610391854945 20.933665029846395 23.42693576825067 22.616771230096525 21.24518499726459 16.6947612303138 20.758167910929092 19.95935026359127 21.462943495990057 19.559634464504494 20.75828663634524 22.914960583477157 22.107842724921433 21.392756220467334 19.785471011812547 15.248542908219864 15.335697927772522 17.735500697008682 17.08147573466987 18.80634128160326 21.00026816679379 21.38021134207316 22.43472713528541 18.426298785260187 19.18149361658872 17.999877687522453 16.546313209061804 15.954704295658308 15.07332488779648 17.195302544717805 21.387484956484766 21.106488003881413 18.04221091222601 15.296215624063823 14.43385714596107 16.70042083007711 14.450556264995162 13.965516519337214 13.6341907108529 16.664015533166534 21.789925975047208 20.88422463482837 21.750381554579228 22.058289432702196 21.758640122641616 22.50668524705667 21.211785006694544 21.359203683619345 21.344234314263904 20.31488074662442 17.348588577981282 16.969542072242895 16.523953208673284 15.420429696674146 12.454697894241528 12.707274229376724 15.625575607828244 14.952706841426286 16.66444867494983 17.234244672887105 17.704480532237298 14.449597344674215 13.465432084804917 17.857874294645153 17.77129630988301 17.59009881269514 13.361909160775836 15.219201429594671 13.190586073824713 15.126607668745477 19.300605111277136 17.177129948582742 15.423012162570544 13.18812118454562 13.957864538118537 16.205991455666698 21.59581818241077 20.991605979940008 20.13165804916764 21.63768994167634 18.676673419953495 19.128350643898752 15.9230789275386 13.063973224594786 17.02872638150867 14.940942065663846 15.119781595842158 15.22812381957779 16.743253972412596 16.187039911365133 12.981881738920912 10.813554507297008 13.209506690700401 19.972008644407254 20.325528459302394 19.908391375361177 15.02011150481225 14.469636760541107 17.649514911793318 15.387334358353641 14.61860680333176 15.027515598207248 15.150358973911075 19.488233759696087 19.35790161499246 20.205915801533347 16.1957842763731 13.171891485432587 11.98086983945343 14.797303383767831 18.348700534985383 21.859064617878794 20.66097812001442 16.526445522870866 16.17032491817364 21.548046350723254 20.55315926813613 17.4447654334049 16.991603186549586 20.425272115795096 20.145340158494324 20.741595669222086 15.305349076137142 14.29080381505822 16.26653391686428 19.02049218186624 19.93593800380808 17.80069344353473 19.00618110710229 19.60266070228867 16.85525504281629 14.967834058111443 16.055027909955747 18.471664416337834 18.91348118770342 15.675194872351437 13.1625282464397 14.298176160262289 16.381718876920928 21.134119607834688 19.096335607401755 17.922603597319675 19.864944471837376 19.584457033671075 15.631127880662222 17.6989800640466 19.655951439970316 19.909342640744203 20.131728862942396 20.16140220531662 21.35462771046608 20.291844279870777 18.292413595460598 16.763111721346096 15.579010751760924 13.029650258477744 14.962357023054187 15.33236894335526 15.660708182462605 14.762850177456757 14.372999538413461 17.651517905391678 16.754761301383137 18.00353823165967 17.136558834605285 16.732303089744573 14.917830605972815 17.924265724749816 17.297279627084276 18.197663592093324 15.630867347647136 17.285375364928296 19.082393032812213 18.16138046794459 19.175356309792466 15.125685794516532 18.094768362827054 20.842444592156742 18.338652752687292 16.06689942719051 16.962520771039785 17.373655532662486 14.72551335578814 13.327133114061908 16.390776557506484 15.964330904209165 17.560671495645355 19.0832591620663 21.46448193861249 21.373723363658144 17.509519407232222 14.698451686643375 12.641597026053747 14.773366148511823 17.21731661077481 15.632696705491401 15.60063759889089 13.055982732754407 12.752168334933039 14.83733367471978 15.67577175829587 18.112075289124604 22.4650942967894 23.968402595016574 23.531326564373003 18.79473844246152 20.665546975392857 22.47703403709812 21.961052727094216 20.32229204779041 17.878200964493114 19.074570048133463 19.99715967867404 19.11225574408555 18.740796500257186 15.710685117711973 13.882589570749012 17.014073649971873 17.978328938425317 16.304335156837244 18.269355118105544 19.11805903565474 20.958011577195187 17.772110359359075 17.98112274080761 17.596169931760056 16.26970227821863 14.868001064983476 13.869827738708137 14.106165907915175 15.22049096994483 17.13941952959146 14.546021280067656 15.220349556460238 17.867548279734095 20.131784546195895 16.48828767164469 16.85264629858853 16.006440213135637 15.003213758715281 20.42255902346966 18.39658577473698 17.082114672241868 18.780656419221664 20.499324169641106 22.23889021611071 22.044975075669342 21.543516629330785 20.088890295835892 20.09945330391882 18.373139519165324 19.4677674927811 16.43904359696213 14.078130487012965 13.519693603793627 16.403049727317843 17.144834230955674 17.569017127429838 19.531573671699633 17.147916868348464 19.07319545439548 17.81244153949645 16.233147560551448 19.039506309066997 16.68052349199405 17.43936351253186 14.01283021784651 15.867092027975142 12.787542178053677 14.035004324251629 15.59671758763298 15.369017563129292 17.45785258876471 17.478044100872776 19.02244162731107 19.579974428547402 23.047683524455657 20.728952219475165 17.57979581728512 20.896822136155183 20.635762497353152 20.59373383349617 17.98957896144649 13.206436655051974 14.944411881293998 19.272823974072633 18.538514995933717 18.58552607946088 19.185655183784352 17.189814505009352 16.39218337546357 11.77227616291516 12.850590614878083 18.010971807717684 21.355700603860885 19.54448818035686 17.68649403852225 16.91430408585683 17.424258800967262 16.549421391100335 15.855990411352497 16.517195070618357 13.699652049783502 16.14920778649075 16.38348569183552 17.457661545756118 14.22972730493713 11.598109764192015 12.742924646722143 19.573017980725687 20.702700465937344 21.06115552364955 17.997391142164275 16.87288510328493 20.1183020106676 21.83902024738342 19.297680033666705 18.494374798107312 18.965085738771403 16.241824462899142 16.376973810880887 17.459502069949323 14.452641182389813 16.31933746116094 15.030371195275166 16.435587189009173 20.87928649472485 20.84614406873023 18.644366978812698 19.20328108961181 19.509357047173786 20.35824548443771 19.3808741591481 19.757131747692977 19.342586657865574 18.89507346530875 14.37895786216999 16.50610342033881 19.733787791277074 21.514278617400084 17.112052655879044 14.409057952456003 15.462227096809153 12.504212112460394 10.574673213357004 13.14472500358335 15.726422612923587 16.25540921883296 15.87680318642634 13.753498407436224 14.732385285729164 17.48743001393201 18.361095277796274 18.915212818975093 18.916989046288446 13.479755424970822 15.452784864024233 16.8278455749922 19.421943375772422 19.435265420722704 17.83812594108845 18.57436663136398 15.363932507431606 15.238846821331256 15.635992654021777 15.108740013700377 13.83260719436227 17.17133013684897 16.719460647438996 17.8551091070583 15.422085301460005 17.085503001619184 18.64469579369035 19.244254270690046 16.71098108827793 11.804312158173403 13.936998567641067 18.68301663722588 17.651360624826626 19.655184178211037 20.657493913916078 20.07245360293672 16.316348265089047 13.970362450113779 13.987497459728974 14.904151493032805 16.118474974666682 18.676560212300274 19.81734852387548 20.419714506486123 18.62369848369426 14.425322344373363 12.876214860930848 15.692005998096867 20.55925693633571 18.32668426039774 15.505390222176036 13.874653387822951 13.653806631864448 17.33521629793956 15.781751907989527 18.020697846646236 22.855250687490077 23.509353524581943 23.554605591704657 20.780862794634945 21.877585027730323 21.058337053692725 18.2683457145637 18.37382799485363 17.996675547673316 15.964383034432407 17.665590920105956 18.60886516394676 19.515583679293137 18.34582996890248 14.976137115570138 15.612116449205038 20.809055774489245 19.662787663157683 19.840273790185172 17.33534093162965 16.42664975618476 14.565693503116508 16.70832220616358 16.28895126240969 17.402515695516428 15.423978590655702 12.33591926550299 11.87360572989831 13.120197938119786 15.767554284987364 12.880003058425533 13.544769437528295 15.937106261954867 19.151867873882555 18.09347971874383 15.991961928146555 16.534330720963485 14.731343743073964 19.198054065036754 17.774724187112017 15.468992543982704 18.32872659401008 18.4000094042122 18.67676752644957 18.67741792019641 17.086635966235324 16.54076773544664 15.587724190940214 17.08032945857681 18.836499429140126 17.03840308692946 15.807489756992139 17.8801163169167 21.064664039730456 18.10595231147878 15.897876034392336 16.65510074823139 15.286397143086592 17.808952132810006 19.415646337563825 19.32421201517529 16.898825737907597 13.872567047791392 14.297083906172668 14.942794642761143 18.469178873218393 16.36071791572638 16.159130746702957 14.740641023870827 14.081594304855145 15.450778365264535 18.628515149755756 18.618259397548098 18.594952888762375 21.361593737846615 18.715622809243495 14.514975675581468 17.838512167342426 15.184280064931112 16.262072255550834 17.580731175261445 15.416154071123719 16.814910477722265 18.781399639677698 15.625898920855006 18.24489160533637 18.280400568154725 18.16453089718165 15.282594091921416 12.588010409763253 16.33165613293579 20.937003198207158 22.892276317985853 21.84408697321941 19.683182507574095 19.381446471861373 18.782489293055168 19.341408756411102 20.175602375279936 19.91901938880115 16.813648582482056 19.179428086439543 20.03796400162024 17.37896355497464 18.034368870078943 14.208936682636145 15.792505519414206 19.92853710770391 18.597520869896695 17.949093469601397 16.51008471759381 18.109827342010504 21.07151392195526 18.58249408395185 17.961967155992287 17.66499355864929 20.079908510135088 15.737289067647964 15.648161972732384 18.649589298428577 15.857229353660776 17.781962994531256 16.554362921548833 17.761816261701085 20.621767694749977 20.74220402331136 15.478639063336196 14.265347515526372 15.623030873770908 20.353920043470836 22.086760241072696 20.589534644092158 21.74954818867225 19.55782588678817 16.919912041028745 18.34017084858398 20.617583263104407 20.366838730428523 14.981390792642484 13.96154512967554 14.392909941884025 12.003715749318603 11.870464440428083 15.9183505628761 18.97235591478397 17.169022679327245 18.384316947358556 14.374586010366508 14.521648037152453 16.94599802359418 18.4380246030298 21.298672585695712 20.414752724161193 13.760710695785235 12.482992677090982 13.190289237391584 16.765100659290937 21.393403060916285 21.90011966908634 20.431161066705343 14.853686697153048 14.62506879144831 16.327273614930597 17.78903100824876 16.377274480573043 17.90524508476192 17.902464412131987 15.30807705648366 14.321408253886526 14.112275529457937 14.372309380485865 19.512863831744074 19.68157429154467 13.083818571848322 12.227060826524363 15.211352783538082 15.438659117138851 16.971232034113125 17.391854395798404 17.405504396602623 18.11967742464707 18.589320432414034 17.734250974961153 17.998401024163847 20.47423267724724 20.2209315035536 17.201361649781024 16.570033902107156 16.378119924486118 16.638622335641085 16.43794633369284 17.827352629394902 21.164769399637215 16.148595759919793 13.857441660709156 13.344034923307067 15.666035552957219 17.540834684242856 13.788994688994702 14.407734503832074 21.52997894587357 24.098437997798673 23.21296029724326 21.24367306500536 23.001759060656866 23.567415486495648 22.226675902828188 20.83993692394189 18.95808096549499 15.986297205191747 15.864695874222544 15.490142930719243 16.641649886119737 19.280037953307744 17.46336154974697 18.168640151281767 21.25627125617275 18.15667594475816 15.143337924229407 13.628560094106039 16.522438985022315 14.413822954985596 15.55736482689543 15.939055756962334 17.46658698995367 18.73721574849841 15.67634210921838 16.270727268508065 18.101450687195065 17.901474734622223 14.663212142598239 15.541017041891717 15.77677811974743 16.009575358447552 18.330567845485664 16.055774294136167 14.08571224880661 11.99861334854937 15.448568572210004 16.398128742916406 14.074115608409848 16.631050638862465 16.96666243568459 20.46262210503885 22.051482294783362 21.56255134488237 18.959069902077587 15.034208046694493 16.504158946320043 19.25419362677822 18.20114805289452 16.844073890058887 18.103527347759336 21.745677343827435 19.966469919742106 14.836697407687303 13.263223680049727 15.887302837573607 17.56420260941683 16.846108906077752 17.419578868317984 18.72618026707936 17.47177177233707 17.664005242660327 16.763013881075693 19.40359568093917 18.062131115838167 14.018822837162318 12.998331486748402 16.51296781163696 17.767095522187397 19.315241082176858 18.242643648873987 15.592784233674651 16.26316547747847 14.543845198573415 12.18899647280591 13.487731828185504 13.748590937341609 18.609344365731033 18.147806095031306 16.843240442664587 18.421627222109006 16.861835831247532 15.639519169353132 19.350831382040838 17.541971154908612 19.81313669471088 17.19406230857674 13.908024459275723 14.999305010537611 20.38494293684919 21.782688472699622 20.748757766574272 17.485534222808266 17.818573912313415 16.114072156525697 14.584285364678111 15.99918931410295 17.747220788872227 16.380931797457503 19.02460163041824 18.826112676308398 16.205871224110734 17.824930048858672 15.325996210661076 16.415593245415973 15.795039569070822 15.102275612211805 16.65101523012505 17.80669941246698 19.91995135369676 20.453177112084354 17.45065672228715 16.551861190805283 17.20784191141338 20.90596687352447 19.58719641637969 18.776326439365842 19.217503194051403 15.202169818042028 17.93940873738806 16.296261332204345 15.588519113524761 15.172337978267265 18.39670361384248 15.369082130937382 12.814497847196966 15.062565671628937 17.080387135110712 21.305128640062353 20.99915939601093 21.535749521532413 18.086394034636694 19.984807469167013 21.109016494083868 17.521278920124775 15.494399590908792 13.640075149810478 12.735491273864898 14.59397869663693 15.274549901012717 16.14511909454545 18.22599138077364 18.21657418206805 17.430164059678805 20.008224509127224 18.277882572875413 15.8578413923622 15.57729513226428 19.23122901791293 22.112158186430353 21.101011262051593 15.99239531891886 12.205123498382811 12.846498421620858 15.572810037572799 19.682331544371365 18.381439849352667 16.231727168219766 14.48815352198181 17.957735835034683 17.153244109501117 18.798440106532592 18.014883187139898 19.628788449440645 19.293230703651513 14.653501005985978 17.014391978914166 14.360322593573857 13.743323062300064 17.812565703474124 21.03512397482927 15.418093508936606 14.626674275270066 16.501034943496943 16.138787624284607 17.813059195830647 19.64429616647155 18.789189040061526 19.029884209894217 20.03114435052896 20.519263635430978 21.459140796771383 22.549574220986113 22.326889401443665 21.026006664756686 21.103979623412982 21.255739700020367 20.645455025769216 18.828656035370717 19.726155044685033 20.605101771755955 17.357522583123945 16.792848694757094 17.372492794394436 18.063772885862097 15.343597877181136 13.758740348434566 15.511941103221115 21.8336349323847 23.67905315354438 21.426233174030656 21.21077466489056 20.63265870669949 21.75707243884429 21.155981046108174 18.15212032436286 18.734238323043307 17.355883947922006 19.08300643166093 18.856910634134785 20.30955282286844 20.68714003120874 20.63618491055117 19.947718407791733 17.299399953964603 13.998463483111173 12.937453531873652 13.312319670336233 16.351632100929667 17.547952398996205 17.575583920326686 16.38961923240641 18.001729490787366 19.060971296579257 17.94135605636781 17.920348787915312 20.080621280795846 16.34706019871406 13.496922775837302 14.877564225675046 17.865242683161643 17.827031395444155 19.221393912960234 18.437679828736293 16.872272207868022 14.000450169393543 17.441080416661247 18.855192833233023 17.19131562895881 21.280618572023414 21.49724300342106 22.359649084350842 22.23187236609769 22.137139544700073 17.023600287828632 14.773531614427162 17.11383273547665 18.739746057157763 18.12744603746788 19.72984997141416 21.497710373249596 21.234972256909263 19.18176538705919 14.781014471670241 13.173020219737857 14.427040039673917 15.524742272388409 16.273488366421066 18.005889725922366 17.347034612087914 15.588847456248482 16.404464150415674 16.769336419736824 17.932256433078035 16.349999085234664 13.544729055562236 13.360145735562066 15.458999745348184 16.85405365166782 17.248651971121042 15.953433084500523 17.861799298005913 19.219541625742703 17.685536608073736 14.56575363075424 15.986780825980333 16.72997863582991 19.816161035770218 20.946299236918517 20.56299154256157 19.311452325040253 16.061374125203002 16.543650510015127 18.221363016614994 16.631962809315063 19.913634078454827 20.519034957764433 18.63806481738595 16.526109006063063 17.8499255396269 20.645977821708325 18.318964449029785 14.650053774403135 15.482887131045405 14.588540142895955 12.931596669457859 14.474399971660118 16.10264028906791 17.104558316034375 17.181611756754496 13.831619423906456 13.54441573144734 17.397081586462992 17.764584862328682 17.03923463949156 15.043340855042821 15.215866919707471 16.6024455414804 15.815374679666535 16.717369660405126 19.58439007463203 15.841604698292564 14.395167652667386 15.909768532895535 20.14130533780587 20.51957801137047 18.647389908725494 16.58383238685827 14.956431625715535 16.756082875077997 14.713411154476907 17.76175104007918 16.709488299386038 20.155279288682518 19.176614894953623 16.06417442368534 16.210758172048997 13.96961080931348 16.723047398218 17.60295278181799 19.632255644899892 18.169020721802912 21.814107137200253 23.002933301368998 17.05860097224761 17.05793331636042 16.59555762205129 13.76732216859913 16.939007085826226 20.316964404927123 20.559970625331605 16.594530879712725 15.246090421661236 15.517265770396111 15.937719007331198 15.044471594812869 15.803689046985603 14.630837204777139 19.905891513815632 20.524715118133567 18.187451323620905 17.29876447486744 13.575976172882214 13.239894902637204 16.93558608232425 16.72010582821975 17.148600473620256 14.48785857765441 16.506355048968036 19.621700747663624 18.80232692579219 18.283106811516937 18.35214062199724 18.7161498933102 16.079639604429634 17.768342575496572 20.414416047802472 20.137729881957203 19.42150003785365 21.20945463389318 21.881971689072227 16.208179711503256 16.404046197730203 16.061618226210275 13.42625646569113 15.289662057661005 17.23729547575011 15.813635747181788 19.054236439366456 19.419048779051668 17.709710570441032 17.873534335054124 19.52602854730521 21.384518896435992 20.573635708193258 18.938276527411094 20.444653952506904 19.169682604875575 20.8969655718208 21.005119515883305 17.31975247497361 15.34750521823322 15.240621575264747 18.924053832100064 19.175480154696327 16.900051045201824 14.16304597777393 18.125062228485245 20.035162526843582 20.506672037342017 19.10943239750639 22.350464634597678 22.52350796584934 22.470910434957414 18.99188828561112 17.098527050359248 18.38556802156328 20.260716522808895 18.616365336566684 16.201768719966186 17.36036372964879 16.621125808403555 21.47359165118203 21.6654313602496 15.194733463164184 12.727598345853538 14.37946116688812 18.07232458595539 18.122881710634328 15.997706840216162 17.822957367435436 19.741509933011262 18.80831703613263 16.78344444455929 16.878415939810964 15.696870580310577 17.19300307657336 14.878199214649445 16.265207267437773 17.80767373884269 18.220249921699136 19.638986911783196 20.335679969541605 18.037714393274694 14.445211486969395 13.405992788338848 16.877517453562024 18.648852482923285 19.91926104301606 21.76832907697321 20.775256898690735 19.997922243921995 19.53345959549771 19.845021701037567 15.302616987893874 15.938383920211788 20.285060881924863 20.586290896298017 19.622034730989107 22.47427025063212 21.549319475837304 19.28196231059925 15.18308299218256 14.582908255474788 18.447185041174635 17.880995974028135 17.968199388036876 17.690915672880646 19.781010103258172 18.587590101772882 17.843995316373494 18.108951967723108 19.46569706384964 19.435511040935417 17.544597719879942 16.95469622098752 15.332651038244059 17.170568333756563 15.975215241355013 17.492714179377113 14.600937496661379 14.320204736867245 18.019598445992777 20.654350574904807 19.864916725538187 20.394936181902647 19.431373182837223 18.795669774934627 17.57012605593844 18.984391329409522 18.813757965171927 17.96608927738634 15.165405833195651 15.692019317471216 18.801337366037487 18.340631774684628 16.336727140656624 13.494539775446086 13.85278174866834 19.4470501942067 20.682300374295945 18.32417516205722 14.750487550604024 14.868523837453537 15.227267972865869 15.221317092034296 18.31718789682911 17.075709002418364 19.68835769185613 19.12429673628148 14.743848194460996 14.844593077648918 15.55182750647867 19.386618222007222 17.502470684728422 15.101028277083481 16.828278493549544 16.14861041977697 18.06057828346595 17.372811674706494 19.26317405713103 16.226705709659555 16.40899292355309 19.633128405011036 19.248654646774867 20.63315672722801 21.312449184803484 19.891464493751734 17.348878884093278 16.72958784772492 13.504751910201206 16.659669783178774 18.051354828189858 17.500672278464883 17.363285962356457 17.547710966788934 19.19172276274436 16.524018508812976 18.03513261237074 16.663769645126482 17.036507893082533 15.958408386827521 19.819190249916215 23.308642533075073 20.21300879861934 20.398344815685903 19.488815511030044 14.918739736569893 16.806330785970925 20.022532666758927 19.559311936379288 14.074937398386599 13.958420303673146 15.113363155895867 16.35273511140314 16.82103661394071 15.938250958624087 16.087310354590965 21.56406704444677 20.059949809161452 19.25470279911304 18.21565039258576 16.96325472006188 15.066134794309152 17.324883605474767 18.04779934844088 20.498321678723308 16.19653262908465 16.337136410876045 17.120593298417955 16.17014739114929 15.997587053384251 18.65677281359143 15.550584214498539 14.541242682229823 16.007430908780012 19.527983039720052 21.291630256872462 19.766908551163795 19.85620330300817 19.789422009830037 14.25418264417218 14.578065740029654 15.96021898796022 12.561436082936659 15.399809048014214 17.641287502833674 16.303916777455715 19.229648992687856 19.231966696464863 16.94223761421923 14.649987842116014 17.554737907698083 18.839880030616783 17.86041381932322 15.074776737035256 17.23998678238249 20.335822184904888 22.616090927578952 23.57032336283907 19.266058136933534 17.470124037079763 16.577220445856586 19.340610624514195 16.4873932838481 15.950446239089194 15.227074573912628 18.100047253671157 20.680704098585032 21.242893414749886 21.42843322136857 21.092490253535654 19.204597026046788 19.253145195474943 16.25159212616129 13.863804146237026 17.16680580362732 20.716467743670247 16.145675552060982 16.77412508798438 17.00147145297691 16.608886602556332 19.097447963862113 20.08976094932336 16.155987113822835 12.673069958895299 15.267356419673431 17.569665912354534 18.514544973134402 16.29524629313078 17.228997948655064 16.57260673199111 15.740228789549313 17.775463847218433 17.587420895075482 13.013211945981856 12.640623140031499 13.215275145712624 15.64608158053619 17.514323444977414 14.862897763592512 15.10578054709234 16.772518075258066 17.572011126827697 14.590132622495515 15.237581459529059 16.326791144103165 20.138698764080477 19.212605566617775 19.381901029927313 17.80766001124161 18.866237897922517 17.03912156240087 17.380482820256965 15.703744709224003 17.411237983012107 18.882358063297435 17.405391305745724 17.73339161142899 20.567993363536043 15.762160234275173 14.244700478280699 15.5388628631925 18.231444557658268 19.041752481051795 16.28185167509245 16.807412310135405 16.468868793294725 19.61952380322783 18.01264883417075 15.509436019817635 16.22760653476846 17.00234969861372 16.416550044638882 15.023048738369006 14.164690682495673 17.86830753221176 19.231976431284775 16.464003174310893 16.64550368769665 12.982527595227433 12.203813891893036 13.392132739884977 16.617118837283087 19.3539379276397 18.594901022482745 17.763291638992367 17.325557787606158 17.11930523607974 21.515467850313946 21.51403382752647 20.439536138652375 18.23468091429427 18.28902903164215 20.77876564012503 20.453677712907187 17.89238975672326 13.40790668024826 11.980770545935513 17.113412519469673 17.639834855222336 16.63879200658362 17.47496947935301 16.495654531433694 16.468769556499158 18.68983531917001 19.19618416282406 15.663402461126369 17.45317639714828 17.906733356968683 18.47545433291075 19.164321786788385 16.231789700941786 18.384320952185128 15.661468251745385 17.028605559933563 16.756865222799245 15.687977833977756 16.245747132986505 19.12028747096442 18.90280065364252 17.524629351957387 17.178777001352497 19.99898852452373 18.712332974308083 15.93374856509586 17.848568311921447 16.07548752392847 16.52755609162422 17.602250389685352 14.33109788058181 15.36240246561118 17.65202169124908 15.826326116508396 16.522829110102435 17.805444814233553 17.698571735380746 15.675734251172319 17.220136377535884 16.741338370292578 18.66237695842261 18.44382536607425 20.783783921123977 21.770525064472142 18.68531046744671 20.835119939229138 18.58080950887214 15.753219304375431 17.191855653210663 20.305234088286078 20.04376543552931 15.871424593743873 17.323549375706108 17.82389008036194 15.297940373500523 17.996872543334362 15.242714614772762 14.16078443006415 18.17154868798437 14.832412033196631 16.644471118405992 17.927780390314638 16.8493698730902 16.344447016146713 18.49876593325173 18.106567566601587 21.959081859148643 20.017851876568947 15.921109128467515 15.000072299736678 11.852469183442741 12.921