# vtk DataFile Version 2.0
Ocean Simulation Step
ASCII
DATASET STRUCTURED_POINTS
DIMENSIONS 200 200 1
ORIGIN 0 0 0
SPACING 1 1 1
POINT_DATA 40000
SCALARS Temperature float 1
LOOKUP_TABLE default
11.43403668816987 11.66114486746537 12.99682824539904 15.721519258220207 13.078531217601217 13.885324222639747 12.1416669475142 15.571187384386336 21.63765191652787 18.37142348439826 14.958395844951733 13.347004941367217 16.37377533737771 19.553241027930373 18.267360857904862 21.66820601538798 18.981131981462156 16.840164431090848 20.291446236841203 23.108959997116767 18.584858883064385 14.83789824286413 10.751142411463006 11.308272410907689 12.656435336184035 13.370306462974787 16.06683683320933 12.339940898776613 17.845371406949095 23.529555535268933 21.71592666946819 18.794362693694218 20.098317158982564 23.14964446912876 22.39486026912126 17.674902760859567 14.758040740099839 20.45678582789006 15.262136881256488 19.528777173161334 18.90386005696952 21.73364570557184 21.52888151291204 17.321387628546308 20.195597892232865 23.315405968499814 19.258221404035897 14.512015175080435 17.010885022668162 13.602911308096417 16.549353693927813 16.154211349353094 17.87838330928268 20.851339391445844 21.913509821690276 23.436957705460465 16.632738871151886 12.221838611044493 14.388647578104509 11.227836129738439 13.33745610172178 22.771441099901697 23.591350593806585 24.2252944029024 21.22337893097097 17.54207477782384 22.739314889540363 19.575106760432426 16.14394989526093 13.648642557723528 15.590158102169365 20.632279994708348 22.290986724005965 22.70298035893757 20.306078029529512 18.482698983391995 19.638121895613327 17.503319006488983 13.977520966787944 18.275576823166737 16.49543074657422 12.654966870215246 14.061634823633447 19.304972836598306 18.914875994073817 12.651328009848225 10.859840255905787 19.38553791096281 15.904956770908655 14.671177169363501 18.95919200998932 14.38266233207953 11.537811529932208 10.303865220679047 13.18151083277033 11.651268699813501 12.489550100077976 10.977360936008386 15.146513575623684 16.393617129340804 14.644231715974533 20.865141179349724 17.922589169263095 16.440090176358233 12.395291288986616 11.546032272157522 14.385499629548612 16.813122847177528 16.31480810803361 21.444796601156465 21.233655210375034 13.02422077794177 17.71955657662771 17.2791440214721 12.264092661955068 18.429699662671265 12.539708244155607 12.944048700632202 16.284225537818678 14.253827793581404 17.48440066398548 13.972197274287174 13.551893646598899 17.749591290893054 20.76588001242912 14.612175868809826 17.925506756230575 13.55343768684721 17.337023344515345 20.613741038567355 20.30727304878322 18.671243896807304 16.297823586894935 19.334225730936485 24.515392136815123 22.31374589239867 19.405343108186614 20.80666127660592 19.180410900488884 16.772228207684787 13.259134764236899 14.591127381569034 18.147073666011366 21.969116945805347 18.527228998863034 12.356849107258157 18.733952972038246 21.661460587575405 18.623823326026155 15.007360345941395 22.64003288918443 22.155751258556048 22.89683744288669 15.940418741048331 15.655310799771033 16.334186646034134 18.590994041543066 16.045422099776513 15.858302100516363 13.081656096583513 13.987271143801408 15.788270366851279 12.674944369626585 18.710534838216514 22.444808076831922 19.707216788860283 16.927095514724154 14.459067328865327 17.462050022782826 16.729595837754218 22.227442850343554 20.79992899585294 18.92284790782782 19.238814992664558 22.912113931516625 19.353334983020343 20.411436339889455 15.86386221030588 13.765375609389395 21.069462282722245 20.584864502760105 23.61488570988512 14.87408859969135 12.500182498569668 13.837179762486105 20.12596619367025 20.09529474728824 22.164063783031207 19.42300172194491 16.95372632819015 13.165832027577824 12.885430188179308 17.94400504083835 15.242627150749117 17.442290882360645 13.935270947518658 20.14062800529256 18.74636991026548 19.475121289846058 18.417906578839972 12.17277954108458 10.882390813949316 16.675813884460762 20.54708696780554 18.780356936787545 20.452840832504485 16.332190563703616 16.40482229088407 19.808660110381485 14.323267190797973 14.805641492134905 14.419672186221312 17.360384489174024 17.859242374753627 14.186478946849821 22.69105729401683 21.845293684785567 19.00951420707396 18.38676283489958 24.68960198688603 23.607427256855942 15.915799496574587 13.929060557014362 13.240041726207819 12.50860127774039 16.804781920473026 15.976603297088385 13.449392993538222 14.070182682664825 15.638297826299079 17.184899266088067 16.08720413750192 22.02644331067029 24.35648098526481 22.411053959578183 22.1450209317174 14.801465735239942 22.08565821116132 19.435854051453546 22.44560165725646 18.70710464347664 21.041117866683337 24.472726010802358 23.088498575038443 22.153690081390568 20.064803749691333 13.580499490489295 15.39803765719035 18.633679060692806 16.826964054373907 19.646291616312656 22.608854621459425 22.099261828046057 23.993125459191205 16.926282733541772 19.20370891551082 18.206129719043755 17.047273980447198 16.498836812567838 15.220649776810873 17.85100536943675 23.28569418681277 21.847341040354557 17.749675214673452 14.118021732873762 12.579463709066761 16.05298617044848 13.039254110797737 13.140996021835385 12.51314211266579 16.87856201862834 23.409364860720547 20.654444996357245 22.717844896588144 23.115692969308803 22.25137236243868 23.441577747259874 21.189841558416024 22.387892517496365 22.20615599623581 21.285548244042243 17.354266998460638 16.874620901693792 16.27308711199045 15.629123114741784 11.697143163978707 11.747843571053576 15.710271498158612 13.71861100791312 16.523949761044534 17.035776162182376 18.687686451292358 13.795990935300457 12.400322920342639 19.20883034096472 18.845454323893264 19.223374222736677 12.309652162097148 15.98732928593137 12.02134843505049 14.86041046632886 21.122689373297515 17.260542257215704 14.965255916656082 11.975831873709971 13.141682714266858 15.124341789930504 23.208959767338808 21.686054810010972 19.996149258419013 22.79973200806379 18.250853731129464 19.805253891764874 15.212931699964372 11.744812486050618 18.765280922164695 13.690671823072684 14.884808878757362 14.136090966958397 17.001403032559967 16.498594987349847 11.891638965851008 9.472218926252117 11.712775957391495 21.695166525845057 20.85977460149656 21.42570236899507 13.802965522398177 12.800422496053054 18.537172355741973 14.061315103130882 13.708310630213685 14.671892857593791 13.992692898728357 20.386164579793345 19.178386116857475 21.81201666412028 15.674416961275174 12.385718707562456 10.512218765905915 13.898354913444928 18.411014671715066 23.368686712571883 21.6500810992719 15.536687034127086 14.696310793309367 23.21467457245923 21.094785639468398 16.513025786691966 15.923590227675891 21.8686257425601 20.168769321355807 22.30002670753655 14.488140991314552 13.061823231569592 16.4022583750366 20.029199529789768 20.905118035379285 16.681003005831858 20.149010915041423 21.18519477566894 16.26394394232753 13.63028814978386 14.836218190943779 18.018522978403542 19.614701214260062 14.632467869722117 12.244593972742077 13.349268335061529 15.032627974418425 22.306042300886432 18.957727515232108 17.79285566094094 21.05503875894849 21.236226056773134 14.697760153027057 18.25230769380963 21.268305639008005 21.46001268160239 20.787300903249484 21.05638714325065 22.72101458830222 21.70923810047655 18.987290827401676 16.77281905499126 14.54461685162327 11.107978947275567 14.120959968032354 14.43321045482594 14.938881142252459 14.07703539331156 13.276693966472335 18.386546877967156 16.71843830579954 19.07015069641364 17.688134714080036 16.956006759499477 13.524747298263144 18.513330087393086 18.035658410566718 20.078216990154907 15.507280756405493 17.390427105877446 19.52709285766189 17.27464665898399 20.735844484538767 14.1478814715101 19.239398294377303 22.259894998093568 19.04473288848813 14.843223900567791 16.73754710072699 17.44972740216049 13.768449155662886 12.160910418736748 16.819778635802095 14.792068854932985 17.809003227025947 18.989546432076118 21.71440638510163 21.928740250032426 17.161787181893153 14.941408591055636 11.788057411433218 14.99237468613449 17.438233762046895 14.589963885276251 16.608460001630572 12.228880034300454 11.73024851772203 14.156211009215996 15.335552403790564 17.118777179284628 22.602027345477957 24.604570741046857 24.719003889828183 17.663887769026005 20.279368804775096 23.706387635856927 22.90815674585574 21.166169130372708 16.48416255258064 19.044847359436332 20.341690612094556 18.514871206201654 18.874045863992187 15.245765748063182 12.499620204014628 17.73678716358839 18.09952124519417 14.402753967732385 17.56176128901242 18.685300600878968 22.488964104458056 17.702129095419046 18.03227269728729 18.004424969037075 15.89788150969017 14.490747239434077 13.846312907878845 13.925455061847218 14.23436810359667 17.5602932202633 13.655990938454446 15.315273163609442 19.014287196309187 22.043128031133378 15.629332869125795 17.98223184655741 16.43420472499834 13.392034614019003 21.729485085882615 17.866780174120834 16.00425372453572 18.146364130586893 20.586563731858913 23.16971342007695 22.81674307413918 22.628361175780345 20.060061560671205 21.292866724313974 18.066493414977046 20.884490372969356 16.167480071919933 13.288313388148731 12.287784444156856 16.650960684170794 17.280640166783268 18.08569622498755 21.44520482272199 16.525129816550805 20.14065528840675 18.176376015682678 15.11853388209638 20.748496755612194 16.203712436141267 18.91924252132329 12.910455834585099 16.487151233840024 11.300677200760946 13.433138352654298 15.326134495896165 14.815527609873467 18.81033975371091 17.616910958947415 20.320990155718476 19.728329268769397 24.441684136551864 21.0711261997607 16.45843050726274 21.778518110828628 21.969783253406426 22.07766386746557 18.8981494814561 11.7428515261826 13.515096635248469 21.19965399256068 19.57520183966015 19.080068109518148 20.30748499790942 16.657209788237243 18.262525952678214 10.894568152275237 11.512921216822436 17.228687941641187 22.242842978557206 18.769023788465525 17.755080200135897 16.745852389632777 17.319138735538587 16.28031288199639 14.92339760637936 16.955851966316963 11.960271436988203 15.482395455062006 14.84271210474386 17.92276000188075 12.971184762260467 10.427322291233276 11.283538331084229 21.4995594161213 21.449879075668278 22.032304116736185 17.396250171297403 15.958259847525156 20.96004027680978 23.245405555186686 18.78533196811276 18.715651439378927 19.812459621687015 14.98093079128897 15.827446554142494 17.312659571794484 13.12759464164478 17.27385424986207 14.029437492441893 14.978677052007907 21.805340825790147 21.766026622428615 18.52120879902469 19.983425169308163 20.64292680079762 21.693388204759568 19.103302765920798 20.15326051659013 18.666226019110525 20.39272798382599 12.87987088449339 16.555818246855225 20.392577155917703 22.716244474637314 16.909690633680874 13.106894887963652 15.688529928621858 11.119769914515178 8.89325520455977 11.903935212192083 14.6179491786055 15.637789724890284 14.948972888355463 12.056297611737362 13.24141542476256 17.378335361833663 18.419433223592502 18.771024286551185 20.42959287167246 12.164389500920509 16.422524543674722 17.5310750235025 21.13959212351835 20.131080582900033 17.11845003682857 19.04644476332334 14.68106805477938 14.806223396001942 15.432386664902838 14.473093766439787 12.401647701891589 17.760502677289104 15.755990477588192 18.730567361067997 14.761811352144258 17.649256544201492 19.557611342354967 19.93901464592872 15.9714191065113 9.877362713748337 13.037862238652169 20.068832522664493 17.13035933235471 21.103897806915963 22.156291136223206 21.68864801418307 16.0219712972581 12.912135423447154 12.74433857832996 14.419393265848957 14.699210910796111 18.638352013427287 20.144830101212257 21.397915717989015 19.885528245948482 13.447152360160626 11.599496965677417 15.047418099539797 22.24647289771437 19.420668598678375 15.483972820833223 14.135206412327118 12.640563060423158 18.82114969253405 15.436377579427292 18.392718653073665 23.929422520324895 23.165910939649844 24.082185290159785 20.404314553589728 22.283479003890058 20.624061555358438 16.17456368489078 17.602162724641133 18.41251327255371 14.662511333647503 17.8155999402424 19.187626669482437 20.638514960479167 19.053955082321497 14.189909260874648 13.875428342604836 22.41093076949044 20.1790896133835 21.630213239402494 17.47204323092024 15.581868351434602 13.341291710249706 17.36549013981532 15.670938947072901 18.324335573379933 15.054560246227798 11.094870710186392 10.500902803001505 11.578620480102146 16.258600026374715 11.667842659979287 12.586845110408666 15.35667208380047 20.359466899502678 18.521542425020392 15.119909899000309 17.737027935671367 14.051045605667154 20.794810086638275 18.0834266306271 14.560831551147592 19.306269135962605 18.38102449363779 17.669153350180032 17.784159868619223 15.141788870379184 15.630933358654787 14.429650448408871 17.017814766137516 19.15078051432903 16.81904103363653 15.406195846577472 18.5488288330987 22.8827999996356 17.58226046742536 15.221620065956548 17.28305981852576 14.009070043575647 17.640327443167173 20.456053990341356 20.866004123261167 16.034354930798923 12.115202737850204 12.985194658219248 14.337565272501296 19.796570181256037 16.170017705441794 17.34630228087321 14.888469116456475 13.013406477796467 14.14753498473992 19.356613110272313 18.39311567945442 18.448373760739322 22.976839289453075 19.495499187024496 12.931042572762946 19.505057179108075 13.705406906612401 14.757831282786384 18.17928227210624 15.05865752422505 16.73314873678504 20.058725081012927 13.829400355227447 18.442564609279465 18.200457261226205 18.560887834986442 14.59907254006178 11.429022186518843 17.34762728284614 21.918344697598204 23.727672070762353 22.60361749376103 20.0493282478631 20.114772634831223 19.18221496502179 20.676182243336715 21.908213243264914 21.343224117131523 16.486506260514687 19.966038843226084 21.66357787799113 16.675244188632476 19.825431487770402 13.50204972735258 15.763319994061703 21.73874648882891 18.612483193234183 17.766804783305265 15.445731045813805 17.6846226053869 22.42070186434703 17.59171402350866 18.090886276633313 16.962906412826495 21.46406639056025 14.141629059679701 14.360033911827864 19.91629924372901 15.407850703552572 18.525056847453005 16.402042628148077 18.20035190350266 22.089524775258813 22.08518681247786 14.14619903619283 13.401990413181913 14.225282373026584 21.503918832369035 23.220158492377696 19.892056753122354 22.873227173887813 20.028428217533843 16.126755839563977 17.877539034791557 21.76988140669827 22.058800305336813 13.934073797705668 14.070824022228846 14.771134234798696 11.065912446501391 10.73607553422526 16.164810317622987 20.757776367080833 16.54050844294472 19.658835464464108 12.901998078779595 14.014118795683352 17.449435763281965 17.90221164240046 22.186601049217455 21.47309116726584 12.434927056797186 11.80395831963116 12.077877806405882 16.190216823982038 22.619898976587052 23.56000084395848 22.324921436496595 13.91243922759682 13.500071102915198 16.453311890297254 18.67722960595404 16.054021077295257 17.94115047356182 17.727035451270496 14.34668319383437 13.537757563025437 13.681214136227487 12.74413260938264 20.877439146228962 21.195052979815653 11.98255348152501 10.935987389820733 14.822830852665696 14.711301167234632 16.490913998712383 16.28232364469357 16.362584083220945 18.38017773221551 19.500810719053 17.70577630330537 17.36435912717932 21.47972079946172 20.65582874071713 15.533276840308957 14.944066658729692 14.876679788220105 16.47190615011621 16.569822217699034 17.39100968995097 22.884524831775963 14.815143576131804 12.793609207625494 11.964699953937286 15.670951578311229 19.15232996530025 12.676268865218844 12.371124970135096 22.007826684592064 24.79299430597318 23.67101324892694 20.544815973756872 23.93747915295558 24.668459096906215 23.129349280762295 21.979968054843255 19.285797530459217 15.415773530695002 15.022518139067138 14.040107975004394 14.933429959299952 20.086600216886072 16.840407725326024 17.866596194309636 23.167430747906742 18.57893270432703 14.37590017292661 12.20046498083148 17.848329779347335 13.089332247653102 15.122861509556031 15.76731999705546 17.24847925649933 20.162825137924756 15.106136286722547 16.641866995870917 18.903224326484764 19.122063884767332 14.501928796211068 16.401666378682272 15.361061805324725 14.542190410654037 19.196620079258583 15.58103286453512 13.080044272502665 10.274820598851312 14.771787975597402 16.36195310021171 12.507291304999189 15.917317084700326 15.17265290895285 20.88310140376779 22.9911199066498 22.584386968295824 20.181409938350853 14.060104720060323 16.07778404385658 20.15047206874909 18.569175148731745 16.09663904617379 16.862694747489787 22.837862565859286 21.039056443835058 14.068654794210865 11.903956885820286 16.692519317490106 18.445534115100706 16.155348342817984 16.6063496584779 19.924847127238746 18.317552196256198 18.878921551768396 16.34879848850702 20.461917220619938 19.262044259243524 13.129720165787148 11.724754865380106 17.818437957512284 18.235014630967118 20.199401833656783 19.069292429601045 13.861288108129107 15.170492138929152 13.370520430953475 11.022080363288364 12.497522176214623 12.135856544684016 20.096957065811676 17.67958977061185 15.749860145384845 19.228436741084934 16.611751245038413 14.525736068791028 20.910083389223622 16.697088999734078 21.040539557950368 16.969548470775973 12.478617192584894 13.539004636952143 21.65616635666888 21.953231542832373 21.417163671006097 16.891450382579443 18.357841130939317 15.888234571961881 13.473854831937823 15.410865145218072 18.285189216395132 15.315823811397168 19.823513463670004 19.99740335814769 15.686496693780397 18.55363722114096 14.318321176725817 16.869408589224435 15.093048777901782 14.085392569221828 16.493114534670188 18.354642932767963 21.23441732499929 20.878042428675275 17.239694339650597 16.545806523164288 16.876342704128845 21.988961450991543 20.01757799319695 19.153239008035204 20.788639277076534 13.72717855319116 19.039188119903113 16.45874148211214 14.689796578634558 13.11939467434622 18.79231291569088 14.622598747365284 11.161471759323977 15.067197240026914 16.56624032673578 22.87583813751178 21.459944630123644 22.540206460406374 16.63497674728697 20.376320458119064 22.119212963709547 16.79380245253611 14.225620189336322 12.85161713811038 11.946404671499995 14.443318366259938 14.896738784995282 15.770704075660467 19.386445727073205 18.621135934445526 17.071814885480855 21.779895645509118 19.888334918622746 15.649199967069267 14.847490429401109 19.36518376520546 23.089234910456987 22.509682938224625 15.935154865858472 11.21473126332119 12.643936733344718 14.679418050633627 21.052777725440162 17.903722143642717 15.801687420347072 13.015222773132631 19.269693021070736 16.28381131556227 19.560321386209043 17.721808951566167 20.300859658197645 20.96316756650377 13.148355864709588 18.05756663920876 12.950292031548258 11.915423602140589 16.805276046014786 22.699862244226402 14.823910053765275 14.258830383171672 17.27814259649247 16.45073338595621 18.371032997806388 21.032688541087197 19.528758819158085 18.897548077999684 20.353132963836686 21.442110009354074 22.689116745203396 23.571022796737786 22.883250899855046 21.515600632500448 22.413282287339506 22.31279598219432 22.016432129927495 18.209834575529214 19.784737400734663 21.87425935543133 17.480122028957425 17.59396340836564 17.740563947326752 18.932679856255362 14.174657428793395 13.44033684103253 14.355536990384687 23.08141346238351 24.886024642896913 21.15670294034727 21.149585122572198 19.351494071771196 21.437139077913656 21.895530318940693 16.949505314768796 19.28875359806656 16.287011593479754 20.20702518485021 19.719105566139824 21.76607615727601 21.758828531686355 21.016523516654743 20.189712230306938 17.074652287810444 13.126065749620784 12.248461797190918 11.87156735595512 16.197992497402016 18.844543058463067 18.182080089175574 15.104068945427496 18.01662104729764 19.9276100020347 18.33258999322248 18.051988492930203 21.99466636262236 16.077790323344765 11.990101040275798 13.78664019531196 18.900743350214185 17.45548327431501 19.387083419892594 19.018525392344 18.299216727501694 13.355102113432421 18.30207253807423 20.02251577995055 16.015112082690198 22.83562992235167 22.293969985444757 23.271578885590788 22.516250984030695 23.502832172507695 16.40634972073724 13.846872716099146 16.747747557852467 18.62949879044777 17.393746203948695 19.643335298602548 22.49931002745028 21.497427672777967 20.289200569824033 14.515611814025199 11.65334790551573 13.580964523739247 14.70962998258962 15.798547497481643 18.29492252037304 17.0313227008994 14.223044494164862 15.957802440075987 16.075058767305155 17.77976929124005 16.007026106378863 12.306207856120844 12.939653458125047 14.930449970997925 17.126359945177597 17.00812987878447 15.021168897797589 19.294797552624242 20.460088230803507 17.973410505519837 13.164863881431614 15.87025708432515 16.369656802233457 20.39154899388678 22.396811925942508 21.70774752863013 19.956177894534814 14.723167392809117 16.998377838913335 19.2235642025381 14.948486107157432 20.673788083714616 22.30505881522113 20.66112747111253 16.828485811692715 16.444914694222984 21.42132952307335 18.04263201996945 13.380198264785497 15.602437950465493 14.42659896795181 11.829869611392338 13.478160864837527 15.805734224225747 16.917954411718014 17.082365415391724 12.254463853094434 12.12651832272071 18.4770820836976 17.97907798188939 17.247333973747807 14.659541214729165 14.69044471717683 17.31719686661652 14.549387277420514 15.559563987836233 20.78648676560854 15.104297207926713 13.242003617550818 14.36551482640629 20.953051681717326 20.963445230060042 18.06052841800084 15.223914474795505 13.958377928108352 17.33429473822298 13.596902296145958 19.3980669421691 15.720839639791361 21.804608652166152 20.63981671294027 15.792783598766826 16.375663798489768 12.022473400595898 15.955904534693682 16.90197280312364 20.496639046895815 17.72573003360979 22.947960625094037 24.532585770406314 15.129519189147452 16.978388198726844 17.12347094047566 12.67352129325136 17.385650055416427 21.758903921205302 22.29989227091866 16.211878651606643 14.705744769292968 15.386741919187942 15.258256019037887 13.607370267779164 16.42142895258751 12.919352830729995 20.538507484872614 20.778712135396223 16.863607218313863 18.10697883398338 12.56889744378088 12.264756338836678 18.120892811021406 15.585112922537942 16.96893551523311 13.066116410736313 16.842675193772735 20.975518414540087 19.481232249034136 18.440200786462956 18.091584147054693 19.810405261725606 15.478083885526015 18.948454830126416 21.543550697839315 21.00293955218743 20.004554959624887 22.26871173702386 23.41564396730965 15.581623559567518 17.342593806547246 16.333779906320704 12.319476244053037 14.784069033387233 17.359581388419265 14.177555455196396 19.573515832826963 19.679858268962604 16.886101345109168 17.640620745218662 19.11458571323865 22.158720255773417 21.1251527299248 18.540089285583495 21.515803466500067 17.736561841054904 21.281176150011046 21.431525312367885 15.976937775432217 14.446127472492911 14.01605367692604 19.681683970368557 20.245897057675847 17.590200153847224 12.731176231875905 19.32112800970975 19.599324249150662 20.138082688597425 17.21205634712681 23.436545404350806 23.492719544966683 23.79288330356476 18.645026371404064 17.159843038096675 18.327990415119675 21.323828155526954 19.220057718843112 14.762288482942408 17.451701878408088 14.664417609273878 22.986226459834946 23.46133979689444 13.758958336829183 12.037901844652573 14.069118178619197 19.819786624004767 18.644184659928015 14.803929757738825 17.837110595737087 21.57514832406613 19.779548844574744 15.506612934749032 16.81399903793329 15.281342431950199 18.28233277088501 14.155000327850319 16.995828301860026 18.569768851032364 18.60977038494449 20.975324280553906 21.679897581489882 18.105860862971152 13.499533656318492 12.158716258300784 17.373338671772924 18.162702643996656 20.58797152569648 22.663695513630497 21.13241307461949 19.531233340050466 19.322709649012868 20.843828156724424 14.037005178654548 15.174292527280347 21.918279988900352 21.805050791874752 19.446374375195077 23.88439389892602 22.77056868715778 20.310339066231265 13.612886370437257 12.918447408097041 20.296735073857832 18.621245536646413 18.683797115197322 17.75569549787339 20.618028910417387 18.71747040399507 18.686599562348963 18.47755791359734 20.678646767314163 20.610792024459943 17.888319407934084 18.627232391411738 14.372743226000594 17.7999530443193 15.123793225376431 18.6633156034305 14.29484392808854 13.14966459780229 18.813293931303512 22.56362769019886 20.51499633039423 21.737096266685246 20.11437901725615 19.036417178590614 16.546997745471423 18.441557634609723 18.24030965979277 18.404716064630435 13.751399420160284 14.195893433403494 19.704354715464564 17.79129802492973 15.410962519570171 12.005302509674475 12.781882751489372 21.02846419396318 21.7232271939862 19.03822033433403 13.593945850935084 14.469238864812263 15.345959228558133 14.272423377891135 19.794629885449652 16.69040346034817 21.21812739127914 20.469292994430706 13.321460697695835 14.328929174219915 14.362400241089876 20.87863899900614 18.090345192601767 13.769271579388827 17.771600074780775 15.39824050025408 19.595077851346165 16.454649882447306 20.275175870299467 15.455442698083104 16.171643866303505 21.08614321806445 18.5039946501164 21.717243275900522 22.696071940766075 21.53021619381297 17.503396143327272 17.064613318320557 12.036868343813532 17.0602773253104 18.742826664228435 17.182807714016622 17.12644228785202 17.40534391051312 20.84062683094289 16.37105128580873 19.064046856007153 16.179848608411575 16.490961708577366 14.248813792000757 19.19280314470542 24.741920059818767 20.587706281678948 20.92621714933779 20.88531992975928 13.824063078546805 16.497486554519572 20.346294627045324 20.058917248320416 12.339891269567413 12.974983834677861 14.398231526907141 16.97599051686559 17.169301350857953 15.893469470752965 15.752754009943473 23.663234599763655 20.723896873017292 20.104483955922603 18.24055712112163 17.899535465397392 14.363590558168003 17.31376635074259 18.011625435687964 22.18190936277892 14.841979908251256 16.41302201786946 17.26666269406846 16.432808029050108 15.535647709005895 20.18886246947756 14.599420105595453 13.911210214204544 15.490177861785972 19.547515478947226 22.23029965023067 19.23687104305424 19.40693375988583 20.647052636795355 12.692241008662728 13.601960999692816 16.691195432407305 11.135451965199579 15.700512729206208 18.17283682876664 15.77651258843152 20.743756751961644 19.760915598771444 16.847381818187156 13.116391472492982 18.028713753896117 18.530522439689168 17.437074375854404 13.651622169420104 16.926914040495607 21.691088562636253 23.965213874782748 25.0720733462589 18.57006578993935 16.983744265238787 15.251212223549544 20.507805873239388 15.89522045210007 15.992193286625263 14.098293524427723 17.527135171572326 21.57324670543512 21.909089938500916 22.326915792681095 21.63247977250974 18.914004862124585 19.952615764020653 16.038505950075646 12.374464323695216 16.916806909636435 22.16263249059707 14.494690080125354 16.954658496304866 16.21447331350701 15.182598432158088 18.779935557422284 21.127030174805235 16.24322307916513 11.337827496302493 15.38273416186191 18.330566006744064 20.009437196297256 15.271469591517036 17.525283190029178 16.453879464816872 14.91022782163643 18.8503105633562 18.402167133165857 11.730427783355042 11.453847931174863 12.280978074970035 15.829278713980752 18.351273721200013 13.283346176974579 13.939455271635046 16.63478051013311 18.863597582693018 13.85548609950585 15.440778565371701 15.07036909442701 20.959174440999128 18.322723975191945 19.28523102198665 16.816547351099622 19.841291620024535 16.38102015666931 17.145306337972926 14.405945633212237 18.053220200533847 19.101699644038245 15.869333938418395 16.866152292541116 22.020259316693977 14.165550371680714 13.235311017882154 15.831309060735412 18.99584163180065 20.305331959224205 15.837248541716367 17.417131992913255 15.123743043101616 21.147185184040985 18.189789736836687 14.482300430369014 16.02901797082222 16.652270165900738 15.560234033245772 14.063778175998733 12.63911599670033 18.406365738683686 20.111323156409775 15.232465036942092 16.710182076927506 12.182457330120911 12.012849079317961 12.156581460894433 15.948259866831442 19.926435773529022 18.990631337101778 17.66503308881768 16.55400267563465 15.390918275889309 22.628564863634065 21.961222802827617 21.73538219639317 17.95715367447432 18.01896293502113 22.30757964748123 21.335954594564267 17.85214795859616 12.298688830476703 10.62596855736225 18.615873196825632 17.488701772464154 15.063209396242739 17.885574981006037 16.626620404976492 16.017789983797627 19.806215982671183 20.629970031141802 14.217847328217749 16.732623696529664 17.849230219874574 19.503967095981494 21.053474530265564 15.35198062257056 20.121604086167675 14.577469701068194 18.138136681295 17.356195903471015 15.675759327950434 15.995312649402198 20.326227478379117 18.618771396840945 17.297041388905207 16.468087252511598 21.089458185674328 19.4217835357751 14.374556025534513 18.099623666484245 15.13394488599035 16.76966208702813 18.275217262168233 12.926661911880174 14.337632364335333 18.801854673349602 14.274173003025767 15.314228199711708 17.79664680404797 18.33779089641423 15.01671601014755 17.921897033081574 16.337619809372914 20.27790313899739 18.276762390801746 21.385689611065196 22.675783264643275 17.185014157055473 22.07270014294978 19.063276194837886 14.730489509083398 16.893635223003933 21.793723314565906 21.778345516086077 15.144828545711338 18.494517974075794 19.706048049760273 13.947118759755625 19.19345664849263 14.778895663891792 13.289666135238784 19.784359235599524 12.96923349938821 15.921565312463478 18.41861606490855 16.818503200483576 16.499924633019763 20.061770497449285 16.743116439014347 23.320317698066876 20.85434769755823 14.97670056100274 14.695