# vtk DataFile Version 2.0
Ocean Simulation Step
ASCII
DATASET STRUCTURED_POINTS
DIMENSIONS 200 200 1
ORIGIN 0 0 0
SPACING 1 1 1
POINT_DATA 40000
SCALARS Temperature float 1
LOOKUP_TABLE default
14.72794178076433 14.034569868338963 14.76578489235656 15.696111510325062 15.784203312864998 15.527878883490935 15.195681473806204 15.92390524525858 16.983059012446805 16.539416623195343 15.710138151168483 15.673183045564794 16.57345554207256 17.479657272631663 17.947895096369876 18.47991209257813 18.62332159031094 19.021908983400266 19.771375025801923 20.10021872464239 18.99885276298114 16.87230652880456 14.97705059295518 14.260595428685411 14.477048555869498 14.782719601956483 15.00672999536311 15.502584768481338 17.055350776098187 18.447064399836886 18.54757603312402 18.153124234000423 18.734956818517087 19.558282246278488 19.57673021661442 18.673747366579068 18.25161025477304 19.17141199924494 19.470511320564444 19.771311802704762 19.917094727051946 19.88529192542778 19.443183333358174 19.068369802308155 19.463763220556622 19.40361708075744 17.999391047455838 16.647585273391986 16.263141845169265 16.412799445302376 17.2064964427936 17.87789813925948 18.325159304024098 19.011548417406413 19.507504067467817 19.678739684730875 18.408221307272 16.60822050836423 15.553108918695399 15.116164694001158 16.24828997161823 18.57578404439622 19.763819082525725 19.393875499869775 18.319722974044122 17.84430958251031 18.000895451575904 16.9965286720927 15.636724732881797 15.102136677458635 16.072202745536085 18.08860535521561 19.246060679055567 19.213824528926217 18.644484982167317 18.213333479074052 18.421623141288755 18.624046226275997 18.434538833654035 18.18586658455849 17.232075613791423 16.395083649332477 16.43654997052154 16.816991859880503 16.311866696134572 14.82933855364033 14.389608253869033 15.528367388863114 16.539097291586067 17.10133176951059 17.077125936251527 16.07360140917533 14.80711167197401 14.263168866249774 14.4281709405628 14.148853599518214 13.91592223609692 14.141683108317682 15.23059978117733 15.97171048281625 16.65556005612582 17.259130983106825 16.73504675375561 15.70950113073545 14.799406089727672 15.27308927408081 17.016402077550456 18.45305589608031 18.70197693068889 18.695281012381784 18.39209203266342 17.491144158811622 17.53900058516721 17.17152571216632 16.544699185089556 16.856908322703205 16.477887476212814 16.066286632139143 16.00645873394848 15.923279689431842 15.337292000343725 14.575826056250081 14.941274220681146 16.459816495986455 17.72348794226716 17.581494410423343 17.160810290189065 16.896327121054217 17.35143894542128 17.947631092461986 17.678330402414876 16.893988074450554 16.758790685888542 17.707895893732033 19.129450399795825 19.328642766186153 18.675701924967136 17.62530603271994 16.37123470582471 15.54506049078142 15.677640271227453 16.98018937805892 18.59289954976645 18.779938008418014 17.90655998141394 17.545849710317555 18.608431286615463 19.28393068385061 19.214011241386245 19.015856493672487 19.461984299229496 19.83123987604723 19.477836785387574 17.76696021684184 16.77174872642656 17.12163944135777 17.677848460386485 17.542940628549093 16.878580338571798 16.410169866752078 16.6381921749735 17.178173153392176 17.718944262707872 18.747381877620942 19.19405070479037 18.34000889033868 16.845934044751353 15.968154776798713 16.478474148650463 17.462994465687245 18.752993817756387 19.048677045532628 18.89752874281934 19.138437168472727 19.245694753961022 18.567119451849866 18.122087914869837 17.824931948366924 17.896275844019634 18.895220239617576 19.623857789235338 19.60172338634443 18.104223160297238 16.807637499997924 16.464923738377284 16.999047279688384 17.423705818088283 17.841871069289667 17.467074363532806 16.716665333227546 15.677311102397336 15.305924949882094 16.02384860172351 16.50288239625037 16.87230554892821 16.925702982870057 17.431170994894288 17.930377537135644 17.91163761910801 16.608653280541358 15.259840271665626 14.754515339707806 15.791725741805479 17.016769476710035 17.252661916676608 16.92837839545989 16.267710609703084 16.820563528580475 17.64895573094903 16.99280479153411 16.173487586209 16.127567910920554 16.643310529081287 16.861289272714856 17.083801600868366 18.07141332489151 18.513870470532435 18.886050682138873 19.769519649419426 20.545317950548508 19.60568438534431 17.125924390828075 14.89655854934654 13.982894302182373 14.407138953299095 15.213661266562047 15.29942534671246 15.102405281368734 15.562768178268424 16.49297614170298 17.216183055597963 17.876710984660416 19.467611442305532 21.076798697714587 21.370507161098892 20.382791050553855 19.311593095895322 19.80983246675695 20.153094794438253 20.297234907150415 20.089470912545448 20.100926434767562 20.227293094091667 20.094002026650156 19.862296385841464 19.018619330067228 17.323958627739675 16.359128288781935 16.670573672043922 17.1957114112264 17.9661116096387 18.854853790128576 19.44832046672423 19.721370196322148 19.22531992840092 18.815260441312624 17.773578563563902 16.466247163903567 15.556046456906316 15.230680434672108 16.27394858277843 18.129062291603727 18.82409466666879 18.017430896336332 17.056647312561225 16.927949188307814 17.235238188533106 16.427180318961245 15.53737335499849 15.411105259132515 16.680914736664604 18.820835732163953 19.71912988390529 19.880262000453936 19.976900943485322 20.122732295568802 20.384882513783722 20.252545936628206 19.87341226702962 19.414951820870883 18.498935664660085 17.46432164088079 17.025891418337437 16.56394710466754 15.623281065132064 14.58939007834202 14.728696576622335 15.725629571660948 16.379243284608606 16.937244816422474 17.08206063048773 16.664491046785578 15.69403988412604 15.328993819560186 15.886474332549637 15.809610132759778 15.340235255821321 14.700778820562254 14.953145678083764 15.070630309787775 15.78427339600683 16.722260445425064 16.54642779373929 15.912049536300557 15.392675535842276 15.943200396472164 17.563675573863065 19.301790019337137 19.61006197828202 19.420347120975645 19.339577680039998 18.560400784830993 17.995304613434527 16.803194020714308 15.713493828017981 16.080268940135188 16.204034206194176 16.170976372565534 16.37815310674963 16.46787494007289 15.794700409284053 14.511784970799889 13.99856073571211 15.486591233159256 17.839693237406536 18.741378700157224 18.26487563615402 17.133476641058675 16.873439220096447 17.213638702252823 16.88727273536793 16.354549037615374 16.284730859451372 16.896246594437446 18.271392643611634 18.72179772061463 18.17716355198474 16.645460005381103 15.104164482437815 14.831952358033185 16.13087653373082 17.916712268250482 19.22244664772247 18.985568257830195 18.07941082685331 18.176204570702108 19.2576653794751 19.360732702797236 18.742243013029512 18.518150417107687 18.905666083021885 19.09791482018663 18.602514574687234 16.927877381079934 16.20332271358158 16.707419534051464 17.788477715161072 18.43686422554574 18.174404402497842 17.75784734778943 17.612497172281348 17.42826030196345 17.485042407266782 18.178871857958498 18.776912622812777 18.33481272077549 16.911148619928493 15.78639016373257 16.31573272840179 17.736862530132097 19.002708776417062 18.655634016933316 18.01739997996413 17.9346831252035 17.479184192174102 16.718233767551755 17.01996065777034 17.64865941124375 18.0577491531616 18.548352471962158 18.75256823504088 18.87874587136046 18.345796402659627 17.634141791397802 17.15308596788209 16.708535321278816 16.016127091224586 16.17073807082554 16.40390040105169 16.516505265553555 16.266636052400607 16.21098950968756 16.695782669425707 16.647613694104162 16.70994484957342 16.634769037848354 16.676694367254193 16.765076743755404 17.156236041868517 16.567240046084038 16.35113304583082 15.891919099021585 16.649405986297413 17.679789430774047 17.920439823132075 17.347735706541737 16.28240353989733 16.81584738666252 17.85399569227251 17.566003488613152 17.12535174075795 17.1464670926216 17.061313802373686 16.352575159432885 15.964613968829617 16.65012355151633 17.29425819324858 18.12863421441773 19.27416099471876 20.152997795234384 19.586331490967215 17.489052200522696 15.35058591670523 14.445643253717122 15.184145295738254 16.254915484258817 16.007197536621245 15.189557937532463 14.67122373696616 15.025534241311583 15.978008530176027 17.005211374107326 18.996258108105355 21.33402165605252 22.315380416331102 21.73860163624349 20.55451417247034 20.701007307842435 20.906644668248653 20.564018595364626 19.83234195894418 19.268629939928964 19.193379876734557 19.290363168702086 19.123721915160953 18.437228484072303 17.064499122092233 16.256760169426794 16.868688607820815 17.716675806277728 18.100379088206147 18.56795205017787 18.830853640969917 18.82393634933147 18.08801759275781 17.74176622824901 17.209171123816034 16.417723894259723 15.47963583185836 14.784100153308033 15.150088883006807 16.259514901523158 16.775486994105297 16.14439175231118 15.985775024264111 16.74279525286425 17.463233620694435 16.889211410309525 16.144709661145757 15.86002511840353 16.551672934569954 18.24613188720367 18.661751340730138 18.621372315991746 19.208270243121483 19.95337994462087 20.573389098221025 20.56866652837115 20.06455789759639 19.336714995441216 18.574176210660394 17.98585654218178 17.67317024494703 16.77321573489247 15.79255191894915 15.55668699323284 16.258529344659575 16.756994934075596 16.8665332600732 17.148268959155732 17.22122151339014 17.40459897209936 17.08705328209329 16.818824365852446 16.936222461255994 16.44218527725399 15.925248614480386 15.327944355468508 15.411248294374886 15.045710451567595 15.21287398155248 15.750710522329774 16.006549405076136 16.38320058389864 16.821271579271645 17.551854995553875 18.674127647998677 19.833158936341285 19.449290986228778 18.67605653520139 18.830011768235206 18.573501169680195 18.19538965156262 17.062759979748286 15.876872328769752 16.267429355887533 16.976510060616775 17.153619358744404 17.456242445381207 17.484659123475378 16.708654582609615 15.230958144607529 14.181142828802276 15.436796029315587 18.13121157276408 19.674932900362744 19.325716680620143 18.093648794550546 17.46129935476138 17.360202467357873 17.054022608273087 16.778401195169444 16.614394450985714 16.548412248744754 17.41210399492668 17.79351177374651 17.29853700396189 15.925842390688851 14.660834488118576 15.121735603134091 17.09210637640863 18.560207799347797 19.099014755672037 18.60765921512454 18.324053849070783 18.97322986525377 19.519079214344227 19.127147615256597 18.566515628326595 18.34014579409022 17.94373987636375 17.763913878184507 17.508996716670044 16.444447554987992 16.215681890893435 16.5470005632387 17.65136953134525 18.869484282767065 18.935162699227845 18.153297593298593 17.778090789351648 17.941032100759067 18.538755373816482 19.152062075321446 19.45031441553362 19.101985593618085 17.88644942020883 16.755461477461886 17.236699617614253 18.428456357460345 18.843700039824054 17.509996893440587 16.243604487934153 15.729719019240362 14.929773365893718 14.505794383817431 15.499064629987696 16.72481914796683 17.206741534222704 17.21691283015467 16.796293476870478 16.98568200708925 17.592456795097473 18.101496302402595 18.23569551808146 17.378032076726402 15.6681949833623 15.306470285190859 15.992781471925163 17.157834327804714 17.857246242793735 17.840597321350927 17.48234586148903 16.509470358380018 16.184093573637814 16.212313202118494 16.247014705500536 16.29702874923439 16.944260489645742 16.940648252457084 16.732608428457077 16.14332489916959 16.531293585354657 17.401011626105078 17.89793180433559 17.08088919107167 15.434815204777331 15.636635274260534 16.93666357720481 17.416667261622138 17.837346664392467 18.17607374287548 17.88284158072323 16.899967248702783 16.184961111579465 16.332417556451663 16.95798826811173 17.99030217298008 19.00299466443789 19.46201010983743 19.072705976728066 17.670560224221774 16.0389395607896 15.438854105368003 16.428990182739458 17.557592493117856 16.846675912809356 15.52723466632573 14.747216963894852 15.015324034257613 15.862005090778496 16.497737518163824 18.33984157283892 21.08189581104637 22.536236336830907 22.35732857631352 21.45789159730876 21.39328383210363 21.20732116305607 20.3730668753728 19.400699562449386 18.50978526103906 17.93498633734403 18.028186586714003 18.221914777940874 18.22181988156643 17.612851391051517 16.938432959658797 17.43855081900195 18.377644728497213 18.26650078200979 17.861852590206095 17.39773197283013 17.145640802895517 16.633532422990655 16.704981139736148 16.740361963218387 16.5971105467405 15.849963077132045 14.831586181336533 14.72702871619316 15.412261625506027 15.719039814467486 15.124518281535163 15.321506043281135 16.40938932630475 17.40767959220745 17.268990423304853 16.471249200392638 15.846569878852035 15.923903462233184 17.200573271773063 17.497409379287394 17.36947165026589 18.17191124336123 19.052875114652625 19.813520039273968 19.94436695835686 19.3048186387116 18.259981614956224 17.480789697414004 17.557574630750878 17.858931596673315 17.32907189156812 16.869251660654303 17.36731886377892 18.18539960327448 17.748763332964245 16.74687540554713 16.424057817196857 16.61690632478833 17.340340797563364 17.69546494952889 17.62849895592784 17.196074398216915 16.33815718135952 15.994674815574495 16.029292651854227 16.490032244536383 15.968553324253095 15.344933103848673 15.179651102260536 15.613052999808431 16.548052329461445 17.51624712489902 18.0255930094585 18.453880299743176 18.9006572333417 18.00530763852849 16.846182945093705 16.969509558034613 17.088515049294255 17.477749509975567 17.264681211246497 16.64097151085172 16.909358617275355 17.27948961146952 17.253431706323664 17.75675033112006 17.893926713737912 17.404244574501583 16.036627326447373 15.013844202386338 16.248544130762777 18.870808223281706 20.427304612497956 20.06517642925934 18.80824920612294 18.033047405871063 17.611294554935725 17.407967960386628 17.51988302325342 17.509923154932267 17.265122386227585 17.802560477663306 17.897612824048636 17.255520229193362 16.415882164967787 15.499363935480803 15.940772501749251 17.265667723937106 17.916115571982022 18.083340684816363 17.995652684354933 18.458138817187972 19.146490851623383 18.89608392542058 18.338691232974817 18.26145212856036 18.50507661006889 17.89720606418279 17.520900941396185 17.379038475387272 16.63834393728216 16.641911504727737 16.717091674563846 17.44662711784096 18.462640882220263 18.52519426344719 17.25624224203312 16.51581157365223 17.123591769491096 18.580822035441674 19.787676855336365 20.134075214846234 19.919423553707535 18.918529946698794 18.188422349376435 18.470271903244022 18.735020295893218 18.11410190789728 16.31486802376065 15.036962093199042 14.702678405057588 14.3409759852346 14.535408362781803 15.792212420300432 16.950744381429555 17.243704833954688 17.13145146424154 16.331301948181537 16.20492144308795 17.10497129482273 18.450883871141055 19.23311260600791 18.24528542975272 15.816315135377714 14.562682281546012 15.098089774229543 16.922430305002607 18.570852201638484 18.796058202994057 17.85904828900132 16.47529889019536 16.227390070952847 16.55526765073194 16.901809278245285 17.01976974384158 17.483636522434004 17.383504275676234 16.45371038577784 15.895132803317493 15.90433911926678 16.648636286589277 17.82160869112191 17.477364099631952 15.495726301267485 14.974307307409065 15.864411157357754 16.541253760427526 17.376608780084013 18.00246964987371 18.05319431053741 17.850900272939825 17.70690161275499 17.797495318539024 18.35027166447807 19.243402276650027 19.63250429079121 19.26323679565404 18.73589259919496 18.07093146284103 17.351132190736767 17.157918128495243 17.887499317857085 18.37684146612097 17.122583195258283 15.785074413021315 15.353573551114238 15.693929109177112 15.94787239590866 15.9117981704607 17.49546343485886 20.496539633865886 22.272334586585615 22.305203099325126 21.793741869508345 21.81636561922384 21.666248584329193 20.7509843520759 19.55851973768816 18.487407788173027 17.60338467548909 17.431188857791952 17.607310239992955 18.093156550138755 18.349272649868638 18.169841386459833 18.315332452778883 18.357190156240218 17.32496945846685 16.283856978206558 15.872259552073968 16.135793250495215 16.102613271302666 16.395840568474515 16.7294374280937 17.11079162867419 16.942013281163103 16.183843375724972 16.06363164946517 16.457543595930986 16.15693855916341 15.337258905908628 15.522243781103281 16.41164406774903 17.248350591988533 17.463217144363934 16.636866303224707 15.558381855832323 15.161714523516379 16.259093256025153 16.891499310087234 17.034787670277595 18.048478459582917 19.058739602338942 20.076637918005005 20.44281522218426 19.736904780756678 18.135650558927306 16.992753489166436 17.35163711823459 18.08755596573003 18.05734746649814 18.097096820833823 18.76662408905224 19.26977183241598 18.176150582140355 16.339201826487212 15.561892626363413 15.96047563383548 16.821201559276695 17.366465315619283 17.66647746518257 17.4779692764998 16.858811644230986 16.70376602125354 16.912287068297005 17.29989218203157 16.52884157765303 15.29107520740333 14.915671190053551 15.736826044915235 16.81879519167737 17.585005150777498 17.556941847402005 17.425957207632578 17.47496500171212 16.62401413475159 15.586397738461 15.760854644763604 16.413601320912587 17.587605474086082 18.00195487580763 17.76576498546399 17.66245883910716 17.301806800171953 17.117486101920306 17.75325957816059 18.043144939097875 18.080116676551203 17.077584948677064 16.00157155729654 16.695370484885068 18.838123362728613 20.11726209018243 19.535142924484738 18.08699192622209 17.217846158053 16.546366540555795 16.236832131331134 16.67155407845396 17.16050110726144 17.324490533899144 17.674273557288448 17.357151484917235 16.775862270106227 16.65162682379552 16.259040460520666 16.280833459184894 16.50559401517466 16.679936238668006 17.072355660383945 17.567713547648854 18.37653585678674 18.80784572002134 18.006278563855002 17.444721916134647 17.934205244468846 18.900673313906374 18.779139621498498 18.262189858215265 17.6546097754711 16.733870852414377 16.657107499893726 16.45668593262967 16.79732466612989 17.430770941795856 17.778456323397393 16.77510822929009 15.88156227606317 16.33070800957895 17.605529515757265 19.09650396058115 19.738813876743706 19.813396874317764 19.287657762500046 19.397735768454734 19.50182358835418 18.539914410948455 17.22844904139877 15.671733928642666 14.78443652522084 15.162794159315236 15.744021336646757 16.209701314764885 16.69708494561627 17.04898340642596 17.175794791560985 17.281330539032645 16.66084091049747 16.26815216621381 16.939310037533065 18.664563047579218 19.668348954483406 18.732257157222502 16.339222474012843 14.552642271288681 14.669799426123799 16.37371544276321 17.978468475590436 18.127126382278163 17.167663359666896 16.467511734527854 16.87740051883907 17.281110082467627 17.651538999787874 17.805209552182596 17.93298282710526 17.395906970837764 16.42777230035194 16.61950002625603 16.5837733644574 17.021851079937413 18.239428649682758 18.262561167617914 16.346329036622954 15.451563896840796 15.723408093973582 16.05154513886082 16.95347883264717 17.81229570484383 18.099464302704437 18.488629850383777 18.799335999659633 18.940480116858957 19.407009796939025 20.191079957340737 20.467481563408814 19.98993133980443 19.509334774231863 19.300405352321985 19.05030654390253 18.97301974722297 19.165641620520383 18.77810032591623 17.417613611098243 16.572386718674338 16.629840330855735 16.681597316324236 16.14173062657356 15.815767959379752 17.3611067118836 20.085109620286758 21.622284329447826 21.662125307151655 21.503103969561405 21.47431750713679 21.240476962961345 20.210473927922504 19.00428592887418 18.44163179073618 18.09213865350852 17.947212190556524 17.981801603215647 18.494465235982066 18.99675334952164 19.24525539706957 18.842143444138706 17.47445016568141 15.795125587119939 15.073750134958479 15.414256844260146 16.21793099894319 16.568271385005414 16.929488374122332 17.22525710277322 17.574216276012844 17.583746826988627 17.11938886022071 16.902020905739132 16.96199766984472 16.215430223020267 15.556652737067957 15.996965307655094 16.929030994019204 17.684654189285485 17.9864271747517 17.19879791106498 15.914972748749046 15.384641299098751 16.5206308175544 17.602472468014124 18.199549820099243 19.31313052390211 20.043655633902233 20.58264742576418 20.587315967533552 19.708989228648583 17.865214959438628 16.928234891525314 17.630992507107695 18.48698519329625 18.815581996298587 19.317704498391926 19.6718775264669 19.329890865916163 17.85600854701982 16.157316938212325 15.548682270241693 15.860838682685914 16.536298594344675 17.15664709738608 17.708895024428763 17.559459620551504 17.035794018525294 17.03534696869763 17.337344618238102 17.472088790667417 16.586062617970544 15.390810118826874 15.130945078719016 15.932178280840152 16.676607307260507 17.00519338686192 16.691477007275477 16.793049396731284 17.308532689565663 17.137987730518834 16.536011115438694 16.69730090731598 17.31052239261341 18.357538768197262 18.89082253191192 18.896889430558435 18.42958069315161 17.51756930769901 17.08584101249999 17.555628402719062 18.04087802897363 18.439495246871196 17.811557258634675 16.682061518032306 16.72118737470971 18.259835293890507 19.24167676923433 18.438433277387652 16.895410522107078 16.09332176559643 15.583713902842412 15.449915707205768 16.099258581392693 16.793793572572742 17.267184962120528 17.204142657726813 16.359908814027836 16.011274319987447 16.556432059641057 16.852202228706467 16.58138067160127 16.137735187204377 16.135253036564716 16.519925752810558 17.06054958039407 17.808712135139256 18.18089207785289 17.287135862775788 16.876259626736754 17.74092268253609 18.97349598780127 19.245158251994827 18.713632820929675 17.715739311591168 16.69016950098481 16.404942695483143 16.09363513007431 16.63841758726309 17.314484391618652 17.867141586829856 17.380165589685156 16.592745014851168 16.482064634797226 16.735165382539122 17.710899101606202 18.375916143737264 18.830174070155522 19.035719144937833 20.01706440488415 20.331219513730016 18.987438463829204 17.732839429673575 16.48740867784978 15.656180520654214 16.44475965668913 17.612683759155363 17.7306995030587 16.85256424892464 16.318141563299815 16.312306789366765 16.498990144769667 16.296753254961033 16.131651437222637 16.78255881313701 18.59563570767316 19.3406836479006 18.561541951872616 16.882995445208103 15.2867537963298 15.102036557937646 16.387844637472984 17.506577383052793 17.675874414960603 16.86883453483945 16.694162200561816 17.26561556135766 17.415603916468818 17.57674767014053 17.749220993481924 17.464323643398803 16.75541099563974 16.943716742790414 18.156345150288303 18.61595286557216 18.807258435081913 19.33143520360644 18.893634379312456 16.893226379570255 15.868849779758216 15.584086882696894 15.327375194739817 16.122032516732794 17.086554867050854 17.48252197549765 18.246077579907418 18.627892261099557 18.3983387477483 18.494461801041822 19.321244801184495 19.915332872559336 19.586777308869884 19.03366438094631 19.18346756092219 19.56547244295586 20.05328869707931 20.050786396862865 18.911478184024208 17.534645964763314 17.067481976980865 17.453791881211632 17.239989396357544 16.477616053640542 16.247452348491834 17.719397464044352 19.685062751877105 20.721598284717555 20.8841112784484 21.03015216981653 20.852059034111996 20.27825698361217 18.937382159654188 17.914132135767694 18.138407289084764 18.503707607635956 18.0731248949683 17.75099987598046 18.07590045713863 18.627047904939158 19.35191864746666 18.854809344568853 16.774596837746557 15.046991210796387 15.058259532722897 16.034542838131536 16.764829436647005 16.907437844196746 17.24159294375098 17.49039358452859 17.501518624732967 17.324716912839264 16.853299284848507 16.218062700656706 16.03468104064292 15.66133148767634 15.820672974279267 16.559787218463715 17.17771019127442 17.7042467173353 17.91052845751063 17.121984108101806 15.819842014678603 15.535265122021043 16.84108706144304 18.321103592321705 19.16498685880509 19.862707232466988 19.942711999220077 19.85837981021229 19.503881492366624 18.763005410246077 17.435670851921756 17.238914498259106 18.255335200221474 18.929400056487914 19.245206013951314 19.695746903135923 19.22545264229013 18.127538110747917 16.931270090445413 16.394098978229064 16.53487503461894 16.624588249853574 16.938111780047656 17.459818451177057 18.06791742783205 17.84140465041409 17.301625798020552 17.350192165641722 17.697174266446304 17.638166798410303 16.81910415592213 16.050669750082918 16.138284201957383 16.71243927460639 16.78025388405395 16.503382434846888 15.613973163420996 15.578806183420536 16.691773375202295 17.725633293449125 18.033890290164837 18.131190207667675 18.233060177776338 18.579116596139304 18.911452535188157 19.332077734588278 19.06862404022873 18.134702154785863 17.40596634380477 17.616867358955083 18.249640808809517 18.382834492697036 17.38325413188525 15.906312704610643 15.757024580196498 17.376161582665706 18.42374386071952 17.860176865286416 16.650173972508107 15.992886946686694 15.846029688995182 16.146240715728382 16.812600405577644 17.193951044418323 17.69929280675915 17.465471061446056 16.54417940801968 16.225566066667742 16.580635974819657 17.078144084468573 16.707499180692576 16.192073545771283 16.14193528606475 16.344388136266847 16.931467753030464 17.70517836813546 18.077411577718095 17.421934427415508 17.319192310063467 18.199203870406357 18.870849820635378 19.01521755106202 18.76770208679772 17.877127821129115 16.94005638403604 16.459471821103485 15.955824979390195 16.53092446573341 17.25116935928527 17.633611468816945 17.569952428284637 17.308307640095826 17.10152158028917 16.78238265175529 17.14829876013429 17.423277494279468 17.861603348335965 18.47587450261969 19.886585648459302 20.60252252734813 19.7109619843103 18.843920233113188 17.644042676466924 16.59427071737514 17.193513983695617 18.286085135409188 18.026481265357383 16.549394199217772 15.87482477303919 15.94819536668055 16.197533969266786 16.325146226925025 16.13655328201658 16.613397371955458 18.166876905069916 18.572732796001176 18.22672051574757 17.39197612827963 16.33228440477675 16.019962128370704 16.972240113581734 18.002872932429494 18.49303946551811 17.60365617179535 16.851876606925522 16.623707719582214 16.233758052920862 16.442364234781735 16.996239014903605 16.576881941407574 16.169085360482896 17.284126014145155 18.98983386563098 19.846669700919467 19.83031992839573 19.606065377336396 18.657877946241967 16.760906882808897 15.911517186412754 15.559899380305888 15.10120601169309 15.888039897073206 16.802840393929042 16.940804182967604 17.585548004953047 17.979359507951404 17.48799475302208 17.153946232947114 17.92937247661877 18.73401816348298 18.45453419468877 17.670002105346786 18.014857840461232 19.136148488685574 20.383360233622575 20.891026904295313 19.883430077525688 18.62080079881666 17.944637058900987 17.741747481931085 16.9217700134286 16.412354443123792 16.717936507235642 18.09157044442661 19.421396982412922 20.13805269443568 20.311636586450167 19.96586544046274 19.145852313921445 18.31702479378474 17.080953264465876 16.493763929180666 17.46559835449381 18.43436215569992 17.92320489225155 17.85690973118592 18.31780904620244 18.69772141822534 19.04955974018481 18.420278104461012 16.522319142176165 15.008749157980215 15.210025347111218 16.044313768162006 16.627077481402598 16.762828468004752 16.81236260775715 16.667976007436447 16.577663883232933 16.704059365451197 16.341042610020793 15.258521476256153 14.907220261286872 15.02295113611092 15.653607970029922 16.426152036154775 16.488003098052012 16.527560241744293 16.716244886690905 16.42345734840245 15.690356705686426 15.919746891950478 17.30597744167301 18.872145236259115 19.422352232420998 19.412379231680216 18.978965096852928 18.691248176416867 18.3035463801254 17.97133445292349 17.473259547028672 17.658402996024247 18.342204793427605 18.502074107628452 18.501223334651055 18.508461528973918 17.310569155518085 16.196158263351116 16.095738371111118 16.746727048457704 16.896707491575203 16.448089541452948 16.550181252251928 17.18570017007347 17.810150677295002 17.554031734362244 16.911306757768703 16.908233337114766 17.24570072692365 17.21794426740983 16.63461685133062 16.374100995204472 17.271601174331995 17.894842864861378 17.420897201926486 16.45502635570408 14.817394162531347 14.202660071196528 15.263777483113891 16.918661711429753 17.897407280806696 17.95827150603008 18.104624065152727 18.65603771349124 19.339371621126908 20.193547375306505 20.066969347381033 19.16957024288274 18.51735102197817 18.476339529117354 18.845941539692518 18.830924402588057 17.69480836988426 15.68502802799821 14.736488373684377 15.937159775713072 17.298997210170686 17.727078072918243 17.434364675767455 16.902117071456296 16.82682603801467 17.177727522437973 17.397892150802356 17.32018382951701 17.707663878807004 17.575393064356845 17.217566095649893 17.01529597666345 16.666873562219457 16.6355400491709 16.269971836760057 16.067127367570183 15.82417185385776 15.727371498010886 16.342240637192315 17.57422426677223 18.238616979212896 17.950617294868657 17.916246548317215 18.33957502996456 18.148096305229455 17.64935873146453 17.43655400420267 16.84439111537919 16.557450034672733 16.75142596207759 16.56325864446994 16.890598278675462 17.372772481052397 17.66798667488239 17.81591936475251 17.56121404341427 16.959419197828407 16.4857750753752 16.668285488753085 16.864637817900174 17.45940046109667 18.413271312932803 19.622454568567846 20.04784365845766 19.426944235513446 18.854130683029734 17.732663173858477 16.93418109424443 17.36647890671805 18.11965597183043 17.797534929233027 16.671983940448655 16.276430882588496 16.22955200091341 16.256398624383007 16.468070993858028 15.90593532107096 15.722941650273745 16.651077163591363 16.958341070300822 17.357720713098765 17.34034603539376 16.77871750855242 16.52128780958382 17.36234752092028 18.627719284514928 19.600876559843552 18.82638142910989 17.2206166743012 15.96201864721389 14.877612289367281 15.274885066713674 16.452689200309138 16.308732892362816 1