# vtk DataFile Version 2.0
Ocean Simulation Step
ASCII
DATASET STRUCTURED_POINTS
DIMENSIONS 200 200 1
ORIGIN 0 0 0
SPACING 1 1 1
POINT_DATA 40000
SCALARS Temperature float 1
LOOKUP_TABLE default
14.269328290585465 13.476801784648856 14.477019835536213 15.685364875630382 15.599385923274554 15.360934573081218 14.816086620851966 15.887401582835324 17.564631289856056 16.75412668556633 15.517865411668035 15.3501668329813 16.57882525545869 17.758603796508545 18.127058146266066 18.861722512611877 18.714279597412773 18.948012949377695 19.93067501388528 20.513040685034444 19.115970251809653 16.49778191888235 14.301540672811177 13.689508850503046 14.136065991961175 14.542933891673407 14.799713207433099 15.101293313136187 17.22616895960536 19.164704994038644 19.065332253938973 18.22602936257033 18.9517254564394 19.991798841155262 19.90646458971674 18.46221039115335 17.70749791525208 19.147331434147727 19.130173935836265 19.646142365331503 19.929842291697938 20.20874470559475 19.717383195759936 19.037488225581395 19.800826824262835 20.03873947341206 18.163960558033864 16.46326496902343 16.185889463039153 16.152524077708122 17.165585131218823 17.895184051120786 18.351391539603966 19.299960826072187 19.888880963868438 20.24968801558164 18.41225522932017 16.10986129123701 15.177592070929556 14.545962808222242 15.936719698105911 19.175366554460766 20.578976575219492 20.111722225277752 18.644678811510126 17.98603749750621 18.599433831055016 17.263345231233085 15.495631522494747 14.726980637315526 15.877234438786646 18.492513785807546 19.83958601655228 19.73944400180703 18.934410146184213 18.267473631492386 18.51561290694127 18.57820156678763 18.120498298669823 18.178965717158963 17.02339902080597 15.877874579180277 16.105464967996785 17.01037549393511 16.57463055131516 14.4252118745357 13.827978684009816 15.623953305020462 16.56627126563019 17.047274808599745 17.20033526142376 15.913150356753297 14.264143860347387 13.637900691754835 14.1891862977191 13.83800238608392 13.557350189239443 13.633409869361666 15.161773892521612 15.931714219353982 16.647014296925033 17.702641185615384 16.98276038927207 15.673668682228918 14.239153511325268 14.575619317458642 16.65249356216726 18.39099747585967 18.621277129315743 18.917279824978873 18.670932405890127 17.078326577934153 17.489006375825753 17.045663526237337 16.017762483213232 16.80525085017316 16.018219183260282 15.579254410470938 15.794079620391015 15.878120182984098 15.36959348732711 14.289022346583973 14.665477248029356 16.59183485532824 18.092963717684672 17.438960462294737 17.00156394094916 16.544538089576083 17.26877944536519 18.277202369227 17.99929820935198 16.916707019262077 16.655123205855787 17.889722923840118 19.900257331324443 19.9155090463257 19.056604049020212 17.997429928391334 16.555913798158727 15.437692354625263 15.301763437899764 16.722717876510227 18.844347824603076 19.09657187422414 17.747749473799278 16.92457296729902 18.599859132614615 19.454773477916547 19.133312755209886 18.735216174120318 19.734370885338603 20.321953628883584 20.058810088892447 17.60806701579753 16.39450654740301 17.023068879228834 17.80434143396213 17.54130517680604 16.652426951242983 16.00535323512244 16.269110255126552 16.79737393793679 17.11414310980877 18.656730498104764 19.488629680288504 18.454418369069376 16.616524820088056 15.560839252468051 16.405373986890048 17.45817091010934 19.246647284726553 19.449411324926626 19.103704431245486 19.496810175360068 19.84511409357915 18.812217390778727 18.30056385492799 17.718411486249163 17.568492523713708 19.10355325737977 19.978539571111742 20.151895647891568 17.933672658456967 16.337285480337464 16.103657550320065 17.15421011263581 17.696309384134988 18.355299171659222 17.669045403454955 16.67488126101392 15.258750203769017 14.831595637180529 16.081108715180797 16.51480257032802 16.975103380214705 16.77785783500447 17.554406884884568 18.137540111396678 18.27391079486429 16.76352030604065 14.896970004671589 14.232015210028162 15.811502292038522 17.4666923460614 17.574072253401482 17.31189263913655 16.223906113362663 16.947377766380107 18.120222415615977 16.927094629427945 15.833461758460487 15.836608408638124 16.659791749034042 16.856396486058664 16.910734919391718 18.554616988819244 18.871459052089598 18.90007058888722 19.853982201795212 21.19454751659791 20.16920488894064 17.029308152266935 14.495703230182432 13.53978367630944 14.126928950217499 15.290309255200041 15.30621417173943 14.825304922031641 15.290793930195845 16.41397699845989 17.200389607075596 17.75999522212906 19.77255040569499 21.71090036114186 21.860800320474166 20.506988111112207 18.817412747966983 19.842217641702987 20.17587646167676 20.480112173746388 20.09843145506199 20.312913679611743 20.790790034748113 20.582437125297087 20.27731326745582 19.257371455228245 16.9771038261115 16.008570998346457 16.751583233035294 17.19980063051081 18.09782638966136 19.269043994687138 19.96055221470465 20.334847617043767 19.321565536577726 18.987190196800054 17.816561079623646 16.374965719336913 15.502206440572186 15.08564421873576 16.40715910261958 18.828085527154244 19.466990251373986 18.13504075251375 16.74068937832957 16.540339936500374 17.221552112539285 16.115596501103884 15.161500122437506 15.019622955618047 16.649331358207945 19.490338963985803 20.222082217683198 20.359370831029853 20.490682865803088 20.598903217219895 20.927888811610053 20.60838553494226 20.200695478056375 19.87862605447108 18.871273652482696 17.445816043180717 17.018937571951458 16.578231252698224 15.473674543800596 14.004145274177352 14.220060921536927 15.634074218465878 16.186477757839036 16.916529038407884 17.173505703999176 16.80224742477442 15.402898451496451 14.951826896027667 16.21759562134142 16.22087379549723 15.68872766946653 14.449362178388508 14.855431517540234 14.673182585753027 15.638067735156609 17.179226604717957 16.748642974346197 15.818465711853241 14.897506288949977 15.431610566393385 17.347156813549283 19.763227920440382 19.98082194111617 19.719552516416766 19.89456749730641 18.726727728937984 18.236833140255765 16.622272523245726 15.081379344946466 15.997874876853261 15.979989671818903 15.88570187250066 16.202335930207074 16.53629916810078 15.855684815267447 14.144734974190355 13.204056956875688 15.011534240374845 18.207828969793663 19.151338467180953 18.49059791675808 16.692336763351726 16.407128645874373 17.18721582894825 16.658137180802267 15.971697594137535 15.920784472289167 16.55237485007878 18.513762323729086 19.00945294280974 18.548790062499283 16.581027374825684 14.586521232413336 14.165717808799906 15.862958935552689 18.08446309642262 19.81941708174908 19.32731063098469 17.773518268653024 17.830991529781645 19.662041109032053 19.637597939494707 18.524511300769667 18.24377235256864 19.10726418733771 19.423490619487428 19.000855601695946 16.573915570660436 15.752449997581632 16.520685077523527 17.98709753626217 18.781248343678943 18.29052190485341 17.957346648684975 17.905839740875436 17.311578197216097 16.94954471780268 17.758196085771974 18.749328195712863 18.408114532285857 16.628023979604716 15.086244711618333 15.812981634131692 17.60278152054732 19.512522843754372 18.87208021374532 18.0627002775428 18.319687614902048 17.81961695972715 16.52764672372563 17.087862285473086 17.96106825557329 18.344598214997426 18.901685941571447 19.05707710452315 19.39055689942645 18.691617506180595 17.695658344180792 17.040836347725328 16.512460883818555 15.461666227414891 15.93239218216159 16.241356830791165 16.375079984836642 15.93301543119642 15.84687038952782 16.83842212397436 16.69137877440226 16.888441480693626 16.672341713365476 16.612277494130574 16.459096914869388 17.283276059871177 16.66670298445434 16.568544425697446 15.817448915936742 16.832042791153043 18.09734972917092 18.227502834359836 17.671932773283192 16.073110638797537 17.017934072337372 18.518955854351013 17.761088411521744 17.019380133934938 17.153301802946633 17.13101775872127 15.991596500160444 15.3324632264312 16.435494870834358 17.027512514868064 17.901967721854145 19.258390020823224 20.567697765371722 20.090632173876195 17.548025514816263 15.03909800957734 13.936846285808478 15.004965689391682 16.529232325336334 16.08853566815315 15.107608984630595 14.230906108654237 14.49061021760366 15.689019907328424 16.659237621201417 18.909769791906264 21.74883918556801 22.83335597073071 22.093259691528647 20.24539582650768 20.73566133608147 21.189922731619202 20.81092259644781 19.848236303831076 19.08104871340317 19.190425756130278 19.469132303240688 19.258281657962886 18.515535964207945 16.713958857336635 15.694834094130915 16.75716430048059 17.791375505144472 17.9630320613335 18.661651671801383 19.055246902146347 19.23439093760234 18.03920588696073 17.786263014549455 17.263841605121407 16.408440617099593 15.3268040081847 14.436080414076851 14.809785829349671 16.119365520731208 16.821205646880813 15.789163269595194 15.681179925420299 16.846990806668842 17.931818788030323 16.924267524660113 16.14690777937414 15.776474163356896 16.37289973755643 18.713728721049403 18.742453939853508 18.388262266003892 19.202923786877296 20.145619187232736 20.96751673772286 20.924144525942623 20.36462770282745 19.588005776353377 18.85478752025023 18.152691556597905 17.983792081609113 16.708115122868563 15.371605686284989 15.09798858329992 16.2354488114405 16.866801684940857 16.99166606837912 17.511518449149595 17.345916064926005 17.7541365830666 17.270789153854395 16.848068943962776 17.323439627984055 16.612931013467175 16.12704261110889 15.109609296516991 15.407814871066822 14.623411169383354 14.934475699204768 15.729839123902599 15.91750795576209 16.482459733657244 16.959682089301648 17.778809188781555 18.97603732300046 20.61522051749551 19.843314651237705 18.62891685576633 19.305270163448828 19.007292452320282 18.67079758875753 17.145555933691547 15.294536535637354 16.066401646153945 17.316154661896054 17.38508425166815 17.73054841473691 17.852168297933762 16.93902415811948 15.20150982854549 13.47500722574819 14.838084552587109 18.26482578794826 20.15452325350733 19.573174024198934 17.98226729643791 17.322456543629038 17.38754141426879 16.976048222387508 16.649460477954424 16.477439983021576 15.980132598405639 17.171224048454505 17.674469713351332 17.300480968382583 15.579564742477949 13.885984435810746 14.594412102263314 17.49591091562052 19.12571647811949 19.582350720348142 18.565713084154332 18.06536354391334 19.176964886958707 20.01251178634013 19.2866585662265 18.51549448414807 18.342589154674226 17.624326366824004 17.46891427241246 17.486283440209938 16.03844808853728 16.030936190183358 16.245307046074565 17.57298513363629 19.37098928566729 19.433503694686554 18.35698320822897 18.049172828373628 18.218204986615532 18.84320037980249 19.291071744791942 19.56677936975898 19.288351247056767 17.91355191075268 16.220301113648095 16.988163854093216 18.73355607231314 19.463580456749547 17.472320416959747 15.883131755161951 15.553277992415216 14.346588437629315 13.54979377321527 14.964139172893946 16.59913810748439 17.060645293128132 16.973241556673948 16.188488372123906 16.552225569167614 17.55763986265364 18.207894882327448 18.490033513200714 17.589522892404275 15.184199662862687 15.094706631921852 16.06090345760856 17.553028140420853 18.258333540429437 18.03624666963091 17.749297521453038 16.289232672515215 15.9498815272661 16.034097158997202 15.972533302190413 15.791933712183674 16.92381982732658 17.044805857554376 16.91718565005645 16.019520120734747 16.5734040823225 17.634200210769425 18.237071013039678 17.09812263638697 14.667845962756862 15.222614325016774 17.231978534229505 17.58985293995369 18.176430082294097 18.680693919541046 18.273323922008004 16.740304388706623 15.63591119472045 15.7611539382459 16.40753088496028 17.6194051514991 18.90767979456318 19.5389958689892 19.309836961526113 17.724127108196868 15.638461527292357 14.838491843681897 16.320130540355816 18.194580596420703 17.156986443524897 15.45145848809887 14.388887316790036 14.710762277547193 15.973084747539108 16.255234280077786 18.169836948141924 21.486362637042305 22.99552926419618 22.68452955392578 21.3479333062776 21.487062077634018 21.28510528641992 20.16183760580569 19.207947712223344 18.2648030931661 17.51288679035825 17.857149832562303 18.222984989752575 18.40337134687842 17.64240506760913 16.475562694219896 17.18999732016005 18.85883988716163 18.62623934104999 18.15027931579164 17.36479659966319 17.036417096010236 16.214184919628128 16.564310282180138 16.67115343525802 16.69426766857856 15.748485691705113 14.251219048461065 14.054214181174139 14.982030247786227 15.606910506481798 14.60381143208184 14.885515811589453 16.34740261518747 17.749463350781745 17.477949606202948 16.456703706322006 15.804521631695362 15.650628294864582 17.498253457822315 17.494226246660297 16.895704654157754 17.982328513505635 18.849255151353177 19.659631490388076 19.777972750816275 19.01102743562692 17.90876608984171 17.081623651028575 17.43724753886983 18.08451289928695 17.269322916266972 16.585378907518503 17.407564374529183 18.764387859777134 17.99689040520808 16.6186930426825 16.360685298684032 16.449731164879598 17.534697560238236 18.057705202598328 17.930869720455842 17.261194559500574 15.956830652555794 15.694184129626347 15.836035166079338 16.85674908837015 16.10006946496889 15.341404716906181 14.980703296069384 15.325602274106261 16.461138264018295 17.78572202802916 18.262142663524287 18.60035225342754 19.396419030525205 18.080116806738424 16.353058177895768 16.889043094660696 16.76862554190025 17.37475013215057 17.254365680635992 16.315510141709115 16.871480152092676 17.501591559802332 17.107062606392002 17.90880971821574 18.07877941747369 17.617124820009344 15.89221277558457 14.408403646786148 16.046376132628676 19.35042614064519 21.140438674765736 20.573184581455514 19.038925971973494 18.320359965949205 17.907308626462832 17.761734851319552 18.0222495019596 17.957831533646722 17.210174361295135 18.074494059884287 18.289096488831973 17.405231061369143 16.574979255117842 15.18151710557789 15.864505614494613 17.746270284106526 18.165761971842283 18.11322287220438 17.753434514668438 18.431818642018445 19.537809804354744 18.997508195486912 18.23020070381522 18.177494426079367 18.721808987198326 17.539199011750487 17.168967691708705 17.496430045453398 16.473388715198983 16.7972769656412 16.67308359177368 17.485926105652005 18.8887135684793 18.97935394365823 16.96188060771297 15.982391081012432 16.87837199073927 18.93586360091774 20.34670912517689 20.475679675180807 20.348648058097286 19.02790875340324 17.954889018908716 18.51199670747957 19.117638920697523 18.509798837582466 16.041578244868052 14.611872024635096 14.423458342878417 13.71642469928681 13.852935320336442 15.714712242055803 17.261839016786627 17.346167222279192 17.289533535442516 15.940321569603263 15.738762723625175 16.937116381464822 18.581922443338247 19.800474814576646 18.733257833090775 15.400163292632918 13.957779190335383 14.65611660201346 17.015241947748972 19.27124195765635 19.51962791296663 18.303426304691946 16.1477734553916 15.905922488314717 16.461765470657788 16.98026368944629 16.89234773888009 17.633305187884446 17.61047718663408 16.268103116039548 15.505864009782634 15.392840521577694 16.210793639440446 18.114383500829966 17.859647305445083 14.908949236543577 14.31442257617184 15.69465544894365 16.362742999841124 17.37672588338421 18.078886111146776 18.084946841533192 17.909566884675083 17.795812126535644 17.772187738123282 18.338386472506357 19.46676302885541 19.762280105410046 18.975648441236796 18.404594711350704 17.824519295157625 17.130278687819686 16.903762364931993 17.966828409904476 18.962526789684453 17.084482144385696 15.38708794144388 14.960092260929725 15.661963131272246 16.093369440143288 15.387062543952258 16.898580186875687 20.756790847180188 22.784102774296596 22.561189416580355 21.76923449213606 22.051671577419807 22.090484564181892 21.06371495452257 19.7492252648414 18.497603519434602 17.204501405783883 17.05688809363812 17.227948122805074 17.962874377275313 18.503163021744204 18.086570529614644 18.383878973742853 18.9078417776671 17.500162423958585 16.031003393439498 15.404141585958415 15.993972282432534 15.759821141489452 16.178135077046434 16.560160806108414 17.254539928914472 17.24806166489052 16.11604004083553 16.06902429502355 16.8097810003182 16.44785828711595 15.107573855960414 15.32884073879231 16.28321884605805 17.176035125171776 17.62948049048488 16.57060238617966 15.224774304669896 14.489250908205461 16.085950603585964 16.706652608457624 16.391690709892934 17.69704446873127 18.743726620020013 20.1608060494935 20.805997069790457 20.11485997246238 18.12231359868452 16.5065467869562 17.1384210523012 18.27609278262358 18.035262487265243 17.88250905570851 18.84817295952095 19.921077125625725 18.56636762445132 15.995121701817686 15.03930432524434 15.750134390736445 16.876591829998986 17.35820327670977 17.74978214115478 17.66402223149927 16.86436757979875 16.755653723634683 16.95688280644696 17.77895776926203 16.80604243149941 15.029160918562033 14.489338970711664 15.714128627301388 17.02218140529908 17.97024393588611 17.67467229115649 17.19812371699664 17.330276801512767 16.164552881801697 14.70422030221005 15.125889571622478 15.849800689677012 17.652624504529005 18.120977721832002 17.691184219700283 17.75080631785954 17.20616227009417 16.85281812074331 17.945819687735668 18.08786880893482 18.433458158316377 17.166060886398387 15.600264328301986 16.402598208642864 19.17903114841373 20.677649051137198 19.864600163235156 18.02528100075119 17.282103195783446 16.437870602429523 15.919750701232521 16.57127234082529 17.257877863106675 17.255013854678612 17.95435652142406 17.583266085938867 16.71164828499631 16.848156212471217 16.16499555313759 16.25006671282897 16.40072619447181 16.402306878668163 16.93692904384337 17.529731664112038 18.629332852263172 19.220380379377957 17.889790703103277 17.116707178384086 17.772377494933924 19.30441264372873 18.980204023636663 18.36037192725791 17.843688320348697 16.516659782698618 16.82053204919728 16.365104638562062 16.57266398197117 17.168967603581173 17.911744327802722 16.457641035766486 15.175327232289936 15.90345748961323 17.51692485782811 19.51984833503756 20.103819160788966 20.195227289479817 19.213435553778012 19.538298034908074 19.837729998836597 18.407406586034906 16.90325496327843 15.140344686257999 14.209469731740551 14.9488148328725 15.659029628484014 16.24453809286116 16.96407851428847 17.33335038729705 17.35633659536617 17.777509704286707 16.85243457098692 16.09259655036939 16.646656535304817 18.87838053050025 20.326301663024363 19.274737492266123 16.201376950963635 13.911553652033223 14.083904216935217 16.24855589386795 18.323642929368294 18.31650238800342 16.974617576396636 16.092321647090237 16.985562197447265 17.407456402146757 17.912220149218772 17.980662217338313 18.345852599217245 17.70398327018085 16.129639524522208 16.52659005948548 16.100351705951585 16.37826325230693 18.31842989799203 18.8412623628852 16.155864649049352 15.201316608144372 15.775231667068335 15.994439568232382 17.098306048557614 18.12989298382854 18.22856938204694 18.70646241403144 19.154398504168253 19.295052650526017 19.84694831946198 20.785315373558277 20.99428002021984 20.261871115808923 19.784111898663873 19.694890546268564 19.332018872914993 19.054407969858605 19.38085913457962 19.12334439014354 17.348499462528018 16.460657136869393 16.774232128631805 16.97086180366081 16.053666424684337 15.216104571122255 16.932997794649655 20.415772537861592 22.07295851087721 21.69166464155809 21.47139370854442 21.5098009750084 21.52381770696954 20.428360449185753 18.942800484034667 18.46190283203903 18.040235510785934 18.061096943401292 18.06526583429035 18.766710542819485 19.343146798992695 19.643761746823063 19.1923942549139 17.486853099802325 15.349843543972193 14.50377481477791 14.999097361069767 16.24054020548783 16.638267430444543 17.020308304146514 17.215561563772763 17.76082042896034 17.928366533061787 17.34575279682789 17.21224508403818 17.591506096767052 16.331571914142188 15.211124925677897 15.827582351733662 17.056192767893407 17.853401653918112 18.386968552837786 17.495848960646327 15.911526144689999 15.004334125625263 16.588913392784363 17.772634600385196 18.086992630409107 19.642546441150653 20.37458464815086 21.02296006498975 21.09989870804049 20.228148790377972 17.68011664838613 16.40630724493329 17.51194831357925 18.597819653153365 18.790618238362217 19.51871587582525 20.156458291575227 19.914240437808367 18.08510233982976 15.767713283152577 15.042005503764317 15.543803334155003 16.357612888267717 17.00147322515897 17.787377980061304 17.57557621709544 16.834703376729014 16.937897112426793 17.33992069209239 17.69512236524705 16.59846841809218 14.9979327296266 14.657878728519316 15.816637573260484 16.714189149058566 17.136360875709293 16.61657738009609 16.87646403155322 17.651379025056798 17.246807145116534 16.167353138596223 16.473042600670677 17.19221684989664 18.667641444606012 19.28296770007097 19.219656714743277 18.592812086845743 17.27363378369369 16.801844652713662 17.539290147125566 17.937494380824226 18.803212815769765 18.304695432758056 16.857013352596052 16.606152322318092 18.413848369993012 19.640827317780964 18.463227387696115 16.427740067908783 15.810896346538792 15.223366862132835 14.85371451739658 15.746053576841625 16.64032174391297 17.263493322504125 17.21335618697113 15.875110513342392 15.490308801753045 16.62294757876749 17.098971559945223 16.67705464996511 15.8934278920912 15.899426666741775 16.414127188600318 16.881124636297958 17.725988479945123 18.403463858792676 16.94048808079952 16.27998545229707 17.438882890470275 19.25265450340393 19.60329248211878 18.871443535049732 17.63486387100941 16.37460612888063 16.37567559910656 15.81745274708728 16.66368275843868 17.305839301382633 18.272003421078328 17.63270848598607 16.441155215162617 16.311822479754504 16.250517244549812 17.54984149492378 18.286352412316763 18.914224192720777 18.875933978908762 20.39056973762513 20.91625948763743 18.790508857238915 17.560214490884256 16.354752705513356 15.22507067026227 16.50724790886591 18.216350756204008 18.329741171029138 16.85597628029136 16.086921021087544 16.116077548193093 16.453358645161863 16.15576732999441 15.913990024504823 16.42947298584692 18.940288662804438 19.772923145165613 18.74415938361266 16.8876983826443 14.86671604945616 14.625812759651774 16.335058140127906 17.462198074102243 17.574234259491256 16.39235329478755 16.548612953782694 17.708099347446986 17.7557064463563 17.81803951806896 18.012775486430467 17.69256176155471 16.636149373246162 16.94436463607182 18.60033084437841 18.922937755969073 18.911385229812172 19.77961890770294 19.552305317950935 16.797233493786162 15.833784778017346 15.610917329269572 14.919374708753603 15.928554147968404 17.11936693306668 17.29410153440537 18.437876051427175 18.879142204417754 18.36025059722681 18.382741537107332 19.480529227102842 20.29512803875094 19.823670374619805 19.06817766180072 19.41306989205088 19.719896868594386 20.32857517497281 20.32238471017998 18.689500909127727 17.01928288089348 16.716972436366536 17.772464249471856 17.642819490266124 16.477792688444453 15.795428337950764 17.631046623232677 19.86883736494467 20.799875159958574 20.731476701132323 21.26939766236392 21.230717263531936 20.749537914257164 18.999527128689525 17.671274019646216 18.204481462953353 18.863907318723065 18.13724251085779 17.482458004243455 17.847276304885888 18.386025370468015 19.781656887319603 19.415737824578827 16.533180614209936 14.423972278508396 14.817107373779297 16.329184191278326 17.101379566715195 16.9064084037065 17.436340028422634 17.870184727133292 17.767141364241734 17.423893255436017 16.923576581523687 16.147373183101656 16.178456310333097 15.535444453627955 15.814101783292182 16.800011504320114 17.4412082984561 18.101081650620248 18.46244332751589 17.40665900458195 15.553729365318699 15.058424228630015 16.773987853350675 18.506259575745222 19.356804979410533 20.29306601724785 20.186307674222718 20.006584156731645 19.597222579626283 18.908095804216224 16.999362520645157 16.913237463534927 18.553285397511775 19.25618437320498 19.456361071122434 20.340642977004084 19.764160068471355 18.340527564127914 16.681860106558258 16.139678902301153 16.77751164806791 16.851638886824094 17.114814900423678 17.561437212158765 18.452852839756734 18.06121622342842 17.334285011299308 17.490572118916432 18.0363076192304 18.003857084685034 16.94357950180169 15.995557494462094 15.993646227958193 16.755417536608245 16.694735378867335 16.587136096068086 15.335373425061132 15.334797538759803 16.956076188969845 18.31314967242476 18.512610295909337 18.58721192194384 18.46915148650906 18.617617526293934 18.721544398868904 19.35496909749448 19.11746121171503 17.994593615393022 16.93960234350797 17.272393223330816 18.285746731163027 18.501046021180763 17.266364935595632 15.399605867500302 15.317425473835792 17.724046961412583 18.93791929375869 17.910715161875157 16.231452424053252 15.643185020161695 15.591554590876088 15.977881475454865 16.985371844381383 17.221851380213533 18.04124189266691 17.726913726119708 16.22986878336447 15.890932373707876 16.48899045609613 17.5186566221553 16.888134433750274 16.08158122539077 16.193728245635906 16.367903601413488 17.035704269025626 17.775885288028864 18.28782042412811 17.167503941747388 17.042785930296066 18.381476028380064 19.129675360439176 19.392606286267693 19.31466846804557 18.23109424678054 17.007571294394932 16.44543409012549 15.457159548977387 16.43142138770173 17.33741315818913 17.66350690382736 17.580570921834692 17.411326304764355 17.407338381292863 16.708401379022302 17.202992223981962 17.27449436089491 17.670959591504793 18.05735543738561 20.035349251619643 21.22608081474385 19.90248033972484 19.22250850519532 17.939077293972048 16.285978003754167 17.17498241012565 18.8205101967604 18.455604766920548 16.149892577914034 15.446755155707237 15.753146773023618 16.152121815244783 16.400895547016816 16.04791194172872 16.515477324089574 18.814095292975647 18.96236210423564 18.465758328616527 17.608558161652823 16.343979038496258 15.816319713083065 17.032182628837052 18.078889581786598 18.811305416023036 17.403196344304 16.673417416055564 16.70961471091578 16.149975961504254 16.36262637990755 17.240527696670224 16.403959586751302 15.74355741074729 16.954414768185597 19.176532677658106 20.185066867480263 19.965758890628397 19.819182345739776 18.886957598432176 16.301571826172022 15.636011767880449 15.490300207693789 14.532353038376197 15.667098901210016 16.936540846135788 16.83936558235117 17.827021015025903 18.271762787988678 17.339845589246774 16.620998293781916 17.73006504675275 18.808613185586935 18.350270085144775 17.126816056330966 17.763946158692228 19.27340575786173 20.851024263083886 21.478901534841793 19.874817158024076 18.369882239649527 17.77222801668754 18.032782487449577 16.899349478852827 16.251448493528272 16.46320545211665 18.18703508993464 19.699168586895173 20.382862667748288 20.54199082991744 20.219599549443135 19.230574056786523 18.47223344227809 16.83593069545638 15.926028068484065 17.41878211043772 18.882942491910242 17.67189427362473 17.509640997621485 18.028866549404807 18.362957149370235 19.15675507421385 18.762263927294953 16.378191380363486 14.487354132689465 15.159007608978532 16.360144769698913 16.988219437367132 16.849103108283842 16.928486042072354 16.67175768454959 16.479899815633797 16.876876902572523 16.540549599806507 14.79661697352845 14.39376244901717 14.60486071771273 15.57633892487804 16.611409907169758 16.315837381071344 16.326649978041043 16.768481136238545 16.5553775870883 15.43765952062825 15.659585091911728 17.23807948122011 19.194282271592684 19.563624854535558 19.464306266663627 18.784694351873217 18.55756242921004 18.021323052545767 17.799918481742974 17.115212923386455 17.482455394119295 18.475871205629712 18.48140356154531 18.497532951520643 18.9139055743293 17.138601768389666 15.755012488167948 15.870834328836255 17.055306897256823 17.338765259444074 16.484642618847637 16.54590409548184 17.21333295609298 18.147992410053458 17.67479347502831 16.661295617779636 16.7440940031406 17.24051193317912 17.155789445649653 16.327097455579757 15.938958554726005 17.3598378167232 18.1848850036208 17.393615975619536 16.472725363886443 14.327605975541536 13.551852437641605 14.872442288995533 16.988889257122494 18.26988577056348 18.098141658765524 18.00630640707507 18.394748750918946 19.003697737806554 20.439953049462208 20.420792259216043 19.322643377617545 18.45655752527819 18.45529135532766 19.15259610619385 19.196867978783878 17.778983489573065 15.160398312641696 14.048668088448206 15.964100907251655 17.45564601839928 17.697760724065837 17.383123764131472 16.73688663021388 16.76040384720086 17.424456893703102 17.677263491808564 17.127356566852068 17.781594130426242 17.69911380215269 17.39503234565719 17.30776008919195 16.66960038919596 16.869796390845732 16.255950626627786 16.188221376595923 15.961664669938168 15.694365300531903 16.326420000738594 17.868824551992702 18.520467364564123 17.89773484004693 17.82310696502956 18.626164321056063 18.229981271957474 17.429690364046564 17.520474625361874 16.764775731592138 16.49637716693444 16.834875306548785 16.134898619297843 16.553794541502075 17.232973894450215 17.386265383653434 17.684224696109872 17.664892869965183 17.063673059937642 16.340200109124893 16.695849756005384 16.826077952476258 17.518516679005536 18.435855316283256 19.93330912869467 20.48601711964838 19.541910364518436 19.29151478877993 17.923518147605087 16.748979076334226 17.37785147074624 18.562567849592476 18.180734454702378 16.52355541577619 16.316728833804866 16.34300467794984 16.169805105925732 16.712036113623842 15.764568649321484 15.370205605149058 16.79832304525735 16.670631249675253 17.27439462514826 17.4534172438539 16.775539559753728 16.389764016959063 17.431476491560815 18.72665651424687 20.148229120251777 19.08250380427373 16.985274511341053 15.662108509841044 14.12713669590042 14.70553613544652 16.546413487030637 15.9984333