# vtk DataFile Version 2.0
Ocean Simulation Step
ASCII
DATASET STRUCTURED_POINTS
DIMENSIONS 200 200 1
ORIGIN 0 0 0
SPACING 1 1 1
POINT_DATA 40000
SCALARS Temperature float 1
LOOKUP_TABLE default
6.620504726900914 11.991571373348727 11.181608136925089 15.878228034378521 8.266438840656567 11.017502462608682 8.673217799882469 15.671707684868068 26.418226362418096 22.119039280286025 14.049538349156405 11.023376598846372 15.280944551384698 21.60437953920868 17.745724838794743 25.751885735097712 19.335588486631003 11.44857153258008 20.341849695659484 28.753456380680312 14.237097040849399 15.40518460536676 6.074233777788235 8.775661913674517 11.60895427986498 10.70750446571572 21.901908821570988 8.117861712664528 17.89028254602591 29.21147489358972 23.74590091559457 20.750162446457104 19.846563388765112 28.398467452426317 26.20350371566549 16.793980789022097 12.01122205941356 23.56800921787848 7.920710070824301 21.77868610612779 17.1071520168446 22.086074446911848 24.66518375737213 14.109927649692127 18.288872148211453 26.397935028433324 22.721874280746192 9.404375728826011 20.59357138411746 8.548231837053173 15.902787252215294 9.971679482559166 17.8363721500783 22.971159297001122 25.17604526910804 27.762589360037364 11.955605880383523 6.309648088505376 15.763338650417245 6.2759327047921785 9.648942953252966 27.301544328202397 25.156345919971425 29.011207523165265 26.39200888438115 14.4657687248505 28.497067271259564 23.435192264869976 18.517151869049794 12.560814415118628 16.156698508784032 23.025407362431455 23.905441859967368 26.674839331162897 21.395183431526572 18.3223878599541 22.876395035053772 15.26274565109355 6.895053169379297 18.663858167171483 17.601001875945474 8.074180485056143 11.76729513296619 24.551733940016707 21.27873944518817 10.792758091885965 6.3560525071538265 29.20962097586095 13.618416766233473 8.04926797216355 25.56475741081719 9.750453683853449 8.733187931129654 7.32278504504385 11.562010539682383 7.847776399946134 11.944504438009046 9.302120625551733 13.33850758519937 19.298649115212072 7.957056641586887 27.497670291462267 17.04641735794958 18.8410020925729 11.555783093520132 9.152737690090499 11.734588259021674 13.86329147851488 9.606955409109668 28.545804764886363 24.240300726775054 6.410249193656115 18.465711302670176 19.724550293308653 6.3919003783483985 21.887840798228478 8.084345366368275 9.0507829465936 21.36454663435537 7.442632937008721 23.924722247334156 15.443533906101472 11.570041043291337 19.558339298088164 24.595683666246636 7.532683715301905 23.255561533394065 6.3754980454641235 19.20899366354756 23.71718905708933 22.35223202001957 24.165050006761682 13.87491860828617 22.28837953403939 28.905036035985358 25.08443615979716 15.754666655183824 25.78771550600858 23.832776947471913 21.74648769079489 9.470243953612439 13.230796684269821 12.06469271514017 28.792281094850562 21.692740338591214 6.166941930769824 16.942550419057326 27.761384544230985 18.431389457626455 6.56129810807214 28.841743247880963 22.75445007870483 24.781394207958122 12.107543186445026 18.659321013802177 13.372617778875048 21.253822227989208 9.900832096873696 18.57488143172102 7.0283019867646885 10.868262723112316 17.708137902956715 5.933142830213013 19.401958692846566 28.646232514342408 20.59378152229886 20.1955435435691 14.076827729003107 19.78668877652871 14.996018738378059 26.336757387124905 21.839888260005136 17.503092633295903 15.28080342887226 26.6988822988668 18.520080121424858 26.603623191634476 10.031231811466437 7.109177741350046 25.177351949671934 19.582715201906716 28.904927281550925 8.110886563998239 5.485949404549229 10.040369320629921 27.751630721621 24.089934948049496 26.637709525691623 23.98441878718641 17.904907132104718 10.024383831180716 12.057029360214887 21.895672772525533 11.295413773564974 18.65368352725109 6.084581052713839 28.48332374986775 17.50245493610177 19.57862697391626 21.867523804704245 6.9570366096855905 6.20057889865692 19.142170841733424 24.532505726311506 20.5753715241542 24.34262587636946 18.312645179953623 12.863656290720007 22.02602969999759 6.44736948314965 17.481200425749787 12.512350388676362 18.706199544292566 21.53593752902533 7.3214400788220715 28.66572058588835 26.5890078724277 19.8144375259792 13.6909960507729 28.736659548247793 29.301018044027867 12.898761721817936 14.741622545019856 16.038177497097124 8.279382844101725 20.87013878295189 17.067099007832624 10.984754297448394 14.045042427355554 13.302703135163096 18.741132134273293 11.080322347383243 27.388653754932236 26.30517153986783 18.84888872632223 27.000963467805295 6.871194666899833 29.227807482929446 15.75941780180426 26.70383742567015 13.799716424159898 23.018762043669046 28.738577272471563 25.638526067205923 25.12758646427418 21.09396373154017 6.1598851584822665 18.62755865221626 20.50258833626357 15.488748871281278 23.527213441744227 29.424395420355808 22.90540649474952 29.320765143854416 9.216801086322993 19.695245369723118 18.874899096475136 20.195828994191313 18.037178012697918 15.903180794658892 19.690060055613753 29.539371451820756 22.609137279408852 16.678360845506013 9.968570204871051 6.512488863337608 13.171792295675438 8.909114310781659 10.262242431581265 8.431486216594466 18.7915234866123 28.17855995565998 17.88217144081656 25.930605856160575 26.54516045946163 22.753606292747165 25.697189551992338 19.583274630895392 26.635151453885108 24.227485362554606 23.174677914650918 18.45936501088413 16.043267567400314 14.420608439852936 16.966749096314917 10.63550292688379 9.168912307429519 15.666147568514022 8.989615759512825 17.037089168037785 14.90590959642381 23.230641895089462 11.514012713773255 9.871816990259104 23.042559271103304 22.28261420480399 24.393228706094256 7.8274305991300865 20.42620996330414 7.456984263144561 15.043428793436904 27.195341458573328 17.14366825104248 12.253536953163026 8.735570706756858 11.21857501098217 10.82135068025084 29.555255451791535 24.460177350656906 17.565587734442726 26.84657461327212 15.625976546059098 22.25908887284449 11.76888686737111 7.8981065077344565 28.20451881323462 6.582347664512645 16.29447181055861 8.503420746443574 18.95584092683226 18.054010080692905 6.0804751448635335 7.59475982081264 5.707076371013003 29.316943436413794 20.662699642165723 27.95655555826653 10.327177528136056 6.090971543753229 23.925500456383276 8.147591703628333 11.392651625580099 14.646870812359902 9.638557283522522 24.240024119430128 17.13864752526683 28.67191174609047 12.913152653298756 10.420972157678511 6.3587025714649 10.617342520219292 18.35766940630138 28.758251747458342 24.201799941901605 12.256783222906009 9.297897981117163 29.528337026141035 22.086080016522285 13.210327574418356 12.230811694970614 28.316840622596505 17.598455578201058 28.677335707625556 12.981678558381983 7.148252952917323 18.47398400187233 23.623973173069665 25.48899047160933 9.52029488657383 25.891164816023775 27.078563282671865 12.470001408751664 10.41960107912235 11.850380255079134 14.437780555759591 24.59495309715764 8.158225531894987 11.906555483202569 10.450752655470838 9.542353282965635 26.57355842772775 17.280570102252184 18.056499681205292 24.643015093740065 27.780191181066055 10.424533719956155 19.56225243673798 27.90868524606699 27.582190699883547 21.202591957106286 24.515493182435662 26.070448494934244 27.203858383508088 21.6863571213782 18.415828626874006 8.874964209211559 5.627310876458955 10.87640343319851 10.985648720228612 11.676705888097612 13.08527260381488 9.940369655507928 20.915256085272556 16.42013479229084 22.740558519137206 20.460439620383383 17.345129270697882 8.731712706507832 20.35052497872829 21.877224238021068 28.80930254870586 15.035076383527695 16.708088988768726 20.596311233106153 11.294506682595244 28.499110266441726 8.805868264171918 25.121227858941758 24.120099722988957 24.3922166390889 7.9038081411203525 16.4863738719266 16.99002541043055 10.397295056952581 9.960532468518865 19.888031814538746 8.228869070431271 21.113935212317283 18.99878293114296 21.14340192588265 22.56098009348827 14.502231302327447 17.750393115363487 8.127111476274115 17.802987949810777 17.099811431676226 8.203141647634652 23.01785750295895 8.104678316143673 10.547792696930463 10.588098815237815 16.897553184975518 11.759280596986388 22.20458490363083 27.225391740897958 28.259343002261744 14.822481954728305 16.81366045662238 29.304953031025768 25.405421984023366 26.65257275578868 9.149381436240802 20.085490626323445 21.33792769288203 14.786752920229434 19.012037023903567 15.559938152375334 6.473569994340586 22.589682413871678 18.335636738855513 6.728644205338514 14.035778145680801 15.888525453260058 28.499048385172454 18.564521259609926 16.90184943620794 20.72322409939316 12.797262077310446 13.448043688374655 14.676801130871352 14.453866027547571 9.798471787320135 19.862737648648068 10.69701579708811 17.004020915434584 23.626895597493576 28.900748349512185 10.374783757905844 24.44293919054153 18.023322871380735 6.1359835721754 26.181096037251866 15.812441605015572 12.883582695076615 14.709511681954565 20.46238511094774 26.488289235290857 24.919382651340975 27.256416064127045 17.971484453389422 26.965558447113516 14.348302564803971 27.159783322347277 14.86890692874333 11.51307909897601 7.572075877023092 17.77497436701761 17.76506668387687 19.994211087948802 28.3298693134807 13.22859762029967 23.96317991778256 19.68186541403035 8.188358652904224 29.208780535092803 11.876640859959279 26.14665025831121 8.019442389917412 19.083058924016967 6.842354076471691 11.473418362347735 13.567950228107351 12.501154215302885 26.274688488451797 15.748637432051796 26.42233135605206 19.266122373439842 27.1110456606769 21.08932151481158 13.360076517171793 22.320942813924653 27.248735025874247 26.867179167346738 22.27137312425128 7.843292448226466 5.781027675049879 29.374448230204557 23.12630390194056 20.11368096527862 24.95987435299582 11.169513230913363 28.562598107757097 8.054370734745268 7.983027726148439 12.251884523048373 26.82396651641227 12.874972142127051 19.654162546614657 16.919662092943074 15.928726379076577 16.465575462858265 10.210089923698485 20.00656643802194 6.26696210799185 14.35615743903365 7.635925991242341 21.787511051403694 6.934315730768507 9.316736272454166 5.736399413268026 29.013956448498206 22.163108355288568 24.832203087626887 15.194137161708063 13.481329609428721 23.694014975604585 28.404800442300793 14.734792813205678 20.944015079321805 23.433248205523565 9.530306515896196 16.348202451856366 15.634078122157016 7.983050738341538 23.43796479473356 10.333587654251787 8.342760490271369 23.94580074341897 25.209872928692867 16.88574603941118 21.330330779569096 25.485662875034986 26.184216945947128 16.422621979676187 24.46852308588923 12.162976483969217 29.153644357884914 6.233602148587069 18.76119147852477 22.296894375034984 24.532099228574076 17.815891288057045 7.495580973518335 17.596939790283656 5.661119198210175 5.913322172149281 8.72998328511248 8.614358436321872 14.560214392774284 11.367052566788729 8.055453592972883 8.050054138245903 16.287061327944645 19.200377290789824 15.864746534262256 28.048077725119047 7.061276952274409 21.723156184877418 19.43325824295491 27.93536891500995 21.77460919536124 13.209514874490866 20.034765042218623 12.721709012184236 13.92644562069085 14.617751343007377 12.377684687516524 7.991116590971586 21.721108768770193 9.290554246949213 22.062701422933923 11.758837050003784 19.7265466190183 23.17330621813246 22.492699924953403 11.242612726980031 5.714139842613605 9.28565722319908 26.46052601524213 12.235736344723826 27.974537495342915 26.38872908656496 28.094998889647112 14.734752662404164 9.96557654033891 8.12703416830938 16.698083938498034 7.777645666739816 19.12167815625372 21.932060060219897 24.55917690663375 26.539201454811685 8.962035664610616 8.476916458121634 12.345466735481432 26.857103818465976 25.07042286528243 13.39057776436016 18.146745001101994 7.48711337199946 25.058098070875076 13.13179375813343 21.844995676324682 27.752200324945587 19.72577123044311 25.63181776698806 19.66876545646172 24.166085111853672 18.439930114661085 8.01233632808698 13.719468073125746 23.131926962763718 8.81877086564431 19.396931163213587 21.91686911786284 25.459701273387505 20.5261822586195 13.99793874414333 5.668884443785127 28.38305749678539 20.654068816389444 29.344374069999034 18.97371112968491 10.256503295044295 9.962446580237353 21.917655936282085 10.976821401631808 23.913574310145478 12.518817233874708 8.152044583837265 6.76411254022037 6.522210356704507 18.80567530084134 8.039392173074795 9.160698265457885 12.27850868092953 25.033144757225873 20.211573341962897 9.414334623387948 24.395309064864847 11.494512698832885 26.85655244516824 19.054568712500046 11.619731490401383 24.706471130983566 19.70647065437257 13.08475048401767 15.65768546799058 7.227745406135093 13.808125491560423 10.044421773065707 18.496783765572054 18.43417288783925 16.082726134470974 14.330620898703012 22.204047986189202 28.811344399937077 13.880660402014122 12.737980379142739 20.8757128991917 8.506274777258417 15.737149013166881 23.54049609914413 29.147675922801753 9.738945779615074 7.50962102368041 7.009680683906323 13.563003113674005 24.360704660957367 13.354425261514262 23.166469187711233 16.602184763099416 9.040428304451257 7.69385339943075 23.45299362801037 14.776545563568398 18.698903176171548 28.521478292935228 23.38593174583651 5.720043055288941 28.830270170078776 7.952198632128274 6.93108761280483 21.942387703880794 15.112492704510018 16.147805792029875 25.148107893358244 5.869527935058029 19.30191201166643 17.185218037399714 20.72334081198526 10.780841844519273 8.25436590661918 23.695444599795977 23.678020728690292 25.191272828940615 25.225084244253814 20.668200494197016 22.146477723625964 19.53819487610829 25.233914610188144 27.983847913552914 24.629224397208645 16.078820122388276 21.529607467567953 28.83195134919862 10.660793147354774 28.894330488519977 10.573924569407342 15.481059728617273 27.930109927047887 17.724829436527394 17.493289977775014 11.831340834466822 15.163311941470042 28.51156129816413 11.18244385415281 20.998136697518106 12.52599333234187 27.362201738610032 8.613517249966318 9.484747747936584 24.87154067279516 14.629240512761973 19.83790822900524 15.442559372127981 20.99722055827216 27.316750751821086 26.123662321179445 9.175373079519508 13.258071054720721 7.008282884831162 25.949509236143314 26.64295717735702 14.558657300173076 27.972566235761363 21.14045983018434 14.249121434434985 14.772460406598404 25.291540981393855 29.12363988239149 8.543627084373911 16.75406448427634 16.213214833999533 9.251581940382604 8.242453244986995 16.01490413475295 29.19235631040972 12.09493739714564 26.089942141560698 5.826384414683226 14.305448018370432 20.73976596530942 14.417539603588116 25.413021544827274 23.26290180025313 8.250140469245821 10.728951422007713 7.995293859619473 13.717070641521984 24.846863595053385 29.12719461592813 28.8622162463979 11.575557000973944 8.503278316087972 18.36995454219081 21.81227503400089 15.455585720945585 17.584121902127528 15.987452727226811 10.357593327164802 10.85941838185044 14.71468155289178 5.753243670684636 26.878941031177725 26.067464694811697 9.078290121745049 8.142077479816102 12.704261445264779 13.168465149157186 14.419561951825823 11.322742488289968 10.993347839497895 20.131523805923624 23.327454135603382 17.788927060426342 13.04824509245832 26.32553801811968 22.474779287364697 9.354387108714333 9.457959772194313 8.600838923335198 16.32368591225645 19.167552000107605 14.570816104317137 29.091641884593688 7.927035868505121 10.526457729539072 6.613763733039465 15.62101743436339 26.190005381675093 8.67263952888401 5.639287699062127 23.044714567326558 26.471036279169095 25.48466401624739 16.82263764126756 28.198515395305762 28.253328030233405 25.690810480900634 27.66204633519178 18.234331498587437 16.09974178935857 11.814037550147557 9.469619752108496 6.632772517973319 24.006694485465594 14.11509703710121 17.35372098331004 29.24625886532029 19.86545957835445 10.964403198192501 6.848957459697153 26.497401596056264 6.483528219381551 13.21453112661864 17.94171929721306 14.046375703549684 26.37097060351877 11.766547118376458 19.201040994769848 20.363245610752596 23.232966778892788 14.011896524395965 21.888920889594498 13.692185225235091 7.833614885179835 23.878981439125226 14.427339699157578 8.092210958420418 6.2701400202162 11.344969062689675 16.554084564275144 8.86861633779934 13.385666110946705 7.702179439215867 23.519721887775088 26.061601737004676 25.31279477499098 25.990761801901584 10.923521348719015 14.61440705692663 23.683047723424824 20.45239058536172 14.501511840456324 10.284740620991377 26.288536791790822 24.553979469455307 11.883066213509597 6.911930532540646 21.74913081235179 22.520484465114134 13.17768069896421 11.14912465533718 26.00258876405844 21.72106031774129 24.691368068094576 13.85013244404578 23.12252999836972 24.53434289598232 9.768476162931377 5.899854241368548 25.184021412552077 19.007760454406295 21.998162697610223 24.694238078470033 5.748036096180137 11.350818267594985 9.276467669555467 10.72214322192224 8.656272248093003 6.626205141197239 28.928576242944345 13.490733468996385 10.703354796116887 23.02482824517498 16.032799286405254 10.03861167867008 27.47508379037111 12.839771212233813 25.787241721158427 15.581778610766392 7.710109815700552 6.170303368297215 29.089324629330264 19.508030604405477 24.50293788766816 14.240993162227218 20.39169012797697 15.36280664657923 9.431163984467204 13.001240844280305 21.01195978536759 10.477163479289496 22.580794177463865 23.937449684450854 14.370687190449324 19.82263663672048 10.068119788770323 20.151105873507763 11.199059225080395 11.710599302261178 15.192922738425208 21.534180917330033 27.103278016984095 19.1530043447404 18.02742402412996 16.97729598871921 17.035301926471742 23.90954991113796 21.798423436595957 20.35709664879465 28.108762840493426 6.61347809081403 23.38497383406079 18.174698676707855 10.551377090872094 5.624058904766761 20.176424662476176 12.610156443622186 5.542717905854293 18.008294684562802 13.520624789737024 28.948034991142293 22.67838358215934 25.651670976824633 9.9626600907663 22.091280670834355 25.507598861925715 15.21809334379708 8.629192253480557 11.977688412506463 9.892167141004357 13.969471263485115 13.564114684016022 12.989791442098351 24.456061282612886 18.30622338904262 14.940113501535318 26.9026429802494 27.845711484675128 13.116968500711932 13.164632405426147 19.92575417304341 24.727206193466486 28.254446469628302 15.256955891869884 8.493966495125935 15.131220454237784 8.937268404982369 28.412819751257825 13.703893376085219 15.649100096622243 6.456429741417569 26.693787202058186 10.222869755164378 22.976918804640714 16.304886588344132 20.64067458714518 28.72105141764769 6.559134045093333 24.505482907142095 6.997618135003751 8.03701714833399 10.795183031952524 28.481594779182064 12.88470412373914 12.481185647675177 20.603747275151527 17.81633276472849 19.969651500869574 26.035566888591305 23.972453001261524 16.80709197667382 20.191916762683263 24.74130597583655 26.77440416843778 25.995447503812887 23.01959181973192 22.941752881159413 28.20217318850708 24.15294424196535 29.049833380845286 13.775734179191486 19.934758530395825 26.387753527032995 17.900302925876886 21.96645672035001 18.224630933392305 22.649133136212356 6.598640157368095 16.67668409484076 8.779560736003605 28.42802381747924 28.389226337148404 20.519684259860473 22.00688014330796 13.254924178382247 18.81844596913343 26.303369923718527 9.440350195384468 24.00195178148738 9.871156512928895 24.935095296757442 23.3840137804974 26.98161102419434 25.607901635789776 20.843023077259776 19.983235446041157 16.69557597736613 10.043387730011272 12.422013116239297 6.552495039275321 13.754691514178418 25.822382296817555 21.02917612020742 7.906889855489933 18.294342486461723 23.01868237085577 19.816336283764006 16.743902313937983 28.320765475791937 14.519505078964958 6.926757622410069 8.247841897420923 24.45067821632407 15.332513995260028 18.19288237290632 20.45174335907389 25.510627262425274 10.964907808814958 21.00322467068625 25.764536740567483 9.330966639077591 29.495966181580748 24.533795410139067 26.384359179477734 21.40732640588671 27.818575982909334 13.27111691529842 12.600935974901915 15.037254519858482 17.3434958143902 14.807470118359763 18.54222641779597 27.07556183315914 18.91278608465562 25.25883236352543 15.694706287917334 5.840264578977621 10.898122221131752 11.184928912951818 14.828812863094779 20.406934137739658 15.61288020570053 7.969460035325695 14.787718479933517 13.426975364234117 16.41927681116916 14.860957581290478 6.733149164086445 15.290536849747268 10.41149194229243 19.708480485506364 15.057803740871327 9.45107563764473 27.622500147902734 23.790643257593864 18.76865452611246 7.706967245940186 16.612330611737 15.5628513010474 19.81236655523046 28.312431515988173 25.847562304113524 22.585612589560057 8.042063185722782 21.079468022523905 23.890813767634498 6.809907917648236 23.461326633872726 27.79916579927346 28.847712280165144 20.022622662283798 7.232783446901583 25.986304320363836 15.647230304587307 10.143327692609608 16.834915281252528 14.029157086034306 10.334267234258947 9.566568817733332 15.57725455913131 16.15822879958762 16.259099369954214 7.715979468878393 7.321573801118789 24.285612625001527 17.487188970862224 16.910908579631304 15.73036432440993 11.451228174957109 23.003159233554655 7.557786056126759 11.23740258952867 25.964756179024164 12.591869066054194 10.790006617187556 7.108423023544944 25.675618171422546 21.001867458611088 15.779296957391367 8.22808153372375 12.294262997002143 19.974684055223726 7.971802759476396 28.173445490261578 10.134885065467492 27.973467927816586 25.787933050385377 14.918073799789992 17.02109764919724 5.724012422432417 12.896199688444211 14.093515475044356 24.42509038201226 16.912069433718617 26.71588735443843 29.51818959537893 6.398752581802352 18.91342826546909 19.06506584132764 8.978544984301106 19.198232563874384 25.86451254533317 28.5811497679447 13.989573352209984 13.40137106642225 17.0477345687135 11.869560978846165 6.159788997249327 22.025757531747452 5.706965781014349 22.669598886267643 21.74542425374236 8.642270553644133 23.883895052538147 8.254343487876891 8.435815919851505 25.867879133305895 8.477653532096827 17.79243784057381 8.6217292085153 19.33343904931065 23.943197055460267 21.830849387431307 18.847361704101868 14.83231532912139 25.659363041351714 12.272678009274454 24.820419746738203 23.114874337109047 23.587912944123925 22.424661618458945 26.443958401298985 26.970085954511646 12.789739075168445 22.59028723919757 15.872129035529376 9.223799160917999 12.603934887788595 18.262528091391896 7.028111744663513 21.733238898085027 20.67255756445792 12.781828521327997 18.372056659924866 15.555391666651015 25.510460323590685 23.07189293073991 15.302162115919396 27.480116546092095 8.178077830143875 23.8304649310835 22.70695815162641 10.568732865422989 13.202732406977132 9.648854701153983 21.67962821693215 22.935759078606566 21.94404856319683 5.753505953381074 27.640454110215153 14.870991917628182 19.807920575801973 8.551873942566509 28.179375826160033 26.766221018216985 28.490869438078 15.219963718202418 20.47527031596853 16.400163974389663 25.025488791139306 22.676281458348875 6.938293069589247 20.47958932454481 5.691897385713382 29.409963287193243 29.494358024857462 7.061453716675417 12.675290329922005 11.726846508552212 27.330342835280696 19.147756160771547 9.889552274973813 16.49996364490945 29.290160807735987 24.01210325208472 8.013362588092637 17.438905141743625 13.702672479719856 22.84029056528278 10.657470539923278 20.916147306292405 20.944961343638358 18.747639276012542 26.26690071023474 26.160209935507005 16.472426462227347 10.350212981526624 7.495807515723232 21.606737781317925 12.972193943583004 25.613499437593926 23.633968943631743 22.998137750676946 15.813751258052019 18.771062551612008 24.828505648001357 10.801253004983353 11.37275905662152 28.041384862889608 27.038448321818063 18.02338484702575 27.666003324314705 26.063883217099118 25.706316743101404 6.565732272830082 5.810525651026114 28.62480300766991 20.401308861856233 20.797612303988252 18.74012574974976 21.95638151285241 18.059492738799236 23.876396968956914 18.32624164133722 25.184232835859408 25.00512051029966 17.43480677834683 28.366542598377627 7.686092881635265 22.067311099165863 10.791157396099914 24.359469636181327 14.726832047998718 6.413284175746632 21.72078788819335 29.333716005565545 21.413950741898926 25.726703533426903 21.791564072108784 20.65958354810245 13.054709673661975 15.76714217620367 15.40972159715509 21.788734684912104 8.688589182377967 7.955994478761827 25.370145977938712 14.196617582731667 12.426139484850971 6.801936674734875 9.004602384168004 27.592428914068506 22.962262676347116 24.0820360770265 8.962915289553925 13.12856929610359 17.650723752237955 8.724627298155292 26.534945910866565 13.886209752147975 27.325971327669492 25.808788466198813 7.297371891753964 14.080898310588905 8.894538030957017 25.38960027852228 21.80164445999817 5.905885667184414 23.93972424940474 8.956348797179013 29.095036068558663 10.229058040353209 25.275952115363523 12.299535124445914 15.843030702096753 28.46133623513783 11.697591049291269 27.19098463302413 25.82577930003915 29.16807799591221 16.584708999245844 18.45566821667444 7.837810051304757 18.3786925845319 21.11118116083541 15.62298488246389 16.573595529464985 15.954300543602104 26.819177808766526 15.636695746849183 23.366257450680703 15.176899258230568 13.529287952218795 9.426869725963664 15.676751286617987 28.541605141705787 24.109667388116947 20.14172323786987 26.08908375375579 10.418881415519278 16.053356238391753 19.322211665761937 20.465915367228146 7.209882473787036 10.620855053601762 9.609032227424834 21.962760579906817 18.171013454759265 15.182827515191525 15.208983291760903 29.561995776026986 22.260793014718413 25.38974691660782 15.041969206925797 23.359345684241706 11.642044446121398 14.8192578748559 19.50423154281517 28.619199198788 8.366390392598815 18.32517249131952 16.57603665808109 18.426711027033328 12.498579882427713 27.661803535522793 9.596868799281186 12.924896259721017 14.270139117091476 18.824882241487277 26.29126895736008 16.45712278929921 16.18292772458913 24.53243167836224 8.345526855745813 9.270895832603925 20.09599146060346 6.435743391260737 18.956819958032003 19.21428838962177 13.517123874076356 27.59941311233609 20.212101162141305 17.734315056736612 7.23151641723024 22.814399444401538 15.32919971117443 16.010936697528454 10.518190346227746 14.459880997233043 29.17362620343674 27.961054947359987 29.316261678874714 16.14529346233562 16.310315213682944 9.444050679087626 25.117724671818973 12.896596925394125 17.17395776279947 10.308148217583003 12.849671772139569 26.15437883510206 23.580319342368234 26.897541581758187 22.45577892012052 16.872651987291366 22.667972658948084 16.170561255121257 7.732515580936681 15.944446844120263 27.23537644903003 6.525109166434968 21.778256451679425 12.618592700613508 11.260881172199388 16.64912431870818 24.71529305769553 17.485826620843916 7.009910475134545 15.628392226091284 19.521879300663862 27.025923132067874 9.67870806644703 19.35426095066227 15.914135576997433 10.801387612887227 24.95715612276421 19.8476208834277 8.324017755802725 8.017133169674969 9.792678220616663 16.244849033679603 21.673603536558105 7.146218806900343 9.367101640124206 15.473588135403396 25.657400183539206 10.103311500282771 18.78123128778659 8.098702079698516 25.74732413938051 12.478328543360274 19.93673907026588 11.927818483675935 26.196230257556866 14.41519291712847 16.585593019993336 8.184909023925382 24.005609202283882 19.26178026057554 8.10538189095018 14.103981644758928 27.672854444614313 6.969616455460681 10.141041793489691 19.455748686704023 20.40547859204153 24.243430372150648 13.100537834175718 21.901239342693522 6.8232907314007765 28.978696023718015 18.199733663490417 10.278193279534324 16.831546409486318 14.585687370093277 12.014008777986232 11.857662777732692 6.2422265361445595 21.08613094117061 23.560256644811478 9.77413384209936 16.13742872022282 9.92851601545055 14.765954879066497 7.2024826419633925 13.011556111452764 20.777670106167317 20.659926344342047 17.528540999103484 14.390955425112944 8.874835468782106 28.10750953350479 21.014662906665777 27.83844204600253 16.418104965108526 16.500217649566544 27.903309148267223 24.111531586936472 17.131428609178034 9.898904643059087 6.368434264401525 25.216814084791682 16.65577221690662 6.472701526062763 21.09209211061583 18.378445246266086 12.930276369471475 24.029798533430135 25.880977821171697 9.408932222420292 12.481730550052681 17.054622040344476 23.120740508147396 29.07058249991427 9.406134238730631 28.98151735679234 7.238751719089735 24.96760391566976 18.13498180821446 16.026211276624046 13.521079820879056 26.132519697185728 15.275266907775295 17.449089162272585 13.495620703043484 23.67366391337098 24.180587083607275 7.636742921539442 19.134167077863392 10.052308527580491 19.068174866907164 19.650167975479373 9.11878910994335 9.600995217515282 26.18602747582252 7.534909715774223 10.840438146096513 17.670598357558465 20.948357137841338 12.02689695332438 21.89982212281023 11.937203281754368 29.208183273955218 16.024949013618553 24.034312674588453 25.802206346746424 9.291449051739813 26.95671674482017 20.868912264146662 10.178800496081706 15.141526609112073 27.810470704068088 28.50490637365133 11.217249399429694 23.00670259300878 29.09205806105868 5.721083308052872 24.22824100701068 13.023687830166043 10.254995039468053 27.162453947272887 5.750508926870698 12.06494413456916 21.355218460705984 15.809193663704038 16.922147260014835 29.103844980929047 7.705902681167691 28.669386779147683 24.342489827395866 11.191453796548805 14.235448638817697 6.330399574174748 10.415559713234886 18.322616838188953 10.398561844677548 7.228678850477112 12.743452676598427 18.231180351609456 17.73768919090474 20.627949601463055 23.108440005125118 18.70111391682768 9.696072637932067 16.795105729333162 25.10331543927951 6.7530685636