# vtk DataFile Version 2.0
Ocean Simulation Step
ASCII
DATASET STRUCTURED_POINTS
DIMENSIONS 200 200 1
ORIGIN 0 0 0
SPACING 1 1 1
POINT_DATA 40000
SCALARS Temperature float 1
LOOKUP_TABLE default
12.226812646149035 11.919214619396426 13.365668437521695 15.695047148044724 13.89066451919928 14.340375560340917 12.858899208118942 15.640766731757742 20.558218836095993 17.87560449015351 15.056680331537647 13.870493706036576 16.47891178291751 19.093311798731175 18.329530986629074 20.887811373283256 18.92757064499049 17.60818838533622 20.23464655467869 22.33982892326072 18.932286567966948 15.12056145655917 11.645586819430834 11.837197635496912 12.988633542991726 13.710281824023408 15.394102413910556 13.103317233526777 17.74383106508001 22.402017705977645 21.116981302634244 18.592151327269097 19.881351488222403 22.25078816377805 21.696158340546738 17.836545879040216 15.458633835028182 19.9555412968323 16.480651309402607 19.389414635951915 19.263385691440945 21.421773032763753 21.019588824033715 17.900218691370068 20.295340718118112 22.545743263944996 18.878969116033556 15.175753975052665 16.61811512095917 14.40258809293736 16.731190713065846 16.89034119397665 18.012802781921902 20.448009470221464 21.36092154424241 22.612063185858656 17.306708225611164 13.310183494852692 14.405545991294588 12.107093903735372 14.08173609269025 21.833592025181407 23.040353990189672 23.184844007011446 20.43844986576145 17.84531710882213 21.624302760508225 18.895165135000173 15.824809537628523 13.849501862644084 15.56600550259475 20.122308196260335 21.787808322958565 21.93762342434144 20.009397754257883 18.443667495173855 19.234198100624162 17.85211720342321 15.263566963983683 18.215175782114464 16.510246535811355 13.500892044787436 14.576582945315065 18.543691839973455 18.302079992342833 13.061589902123655 11.640721331782377 18.000062395234185 16.19939879738171 15.551801503615687 18.257141752850274 14.923785818357661 12.182167223814501 11.085894326999453 13.434818946098469 12.299177839673947 12.662980308758861 11.581672139009076 15.197547042811372 16.14402144297197 15.452395987884987 19.91959612727763 17.79318377407016 16.13894143193468 12.70776423384453 12.190906233481856 14.959228934100166 17.340375075679464 17.16908023606645 20.56269502654939 20.51118136188414 14.236480399299177 17.59956113709622 17.066330872806898 13.321495622828726 17.81737131420526 13.504270678873763 13.6063274030311 15.860814302999989 14.966872022692849 16.66274561527541 13.891770237368792 13.830119617564838 17.428722754764557 20.028136137227285 15.622593050239612 17.387641379029287 14.527290719765686 17.210739411725815 19.988771868708792 19.72859920824145 17.991760769466 16.454984492346785 18.911860255000075 23.391894564592043 21.792633418395358 19.609133771210505 19.993845276549877 18.347920159101264 16.172259052295672 13.808451328060872 15.12984599223511 18.678882475031596 21.03931481577326 18.099157145043613 13.620609358353347 18.75693754590541 20.884808166999857 18.725131369449144 16.258996700149236 21.69917587956131 21.843180474192827 22.29168502681213 16.48674816265391 15.584088708770603 16.59720659827024 18.336008643070304 16.684531801643082 15.88306562263763 13.950405720964604 14.598929758344594 15.819573840403512 13.903214328554606 18.615398508114428 21.514830386226464 19.362859250451272 16.62817721923046 14.616246702358058 17.05770834202852 17.001782845915915 21.432405656808548 20.546895003966625 19.098921044292272 19.61924892567637 22.162131788905988 19.32690050317085 19.658756945012147 16.553066802437797 14.954303510791714 20.429657002961065 20.60488413576496 22.667844905286017 15.923161855049365 13.652792508933995 14.466831063042916 19.071302887127278 19.38382233684267 21.142894335565185 18.83716856719331 16.815465311298734 13.693199568613876 13.263352731719111 17.295403544538665 15.769234958444839 17.309339731325075 14.97021731855413 19.14143504355888 18.699468110481334 19.3041348332642 17.8870765917788 12.988291966251143 11.779296352398593 16.349109750785768 19.717316488770944 18.5104349726594 19.578167907585406 16.20913614002372 16.736579250395266 19.4697928834817 15.30415101502672 14.835525613327594 14.752420338915067 17.12674558210082 17.43198890927253 15.148563100167655 21.526865686306206 20.999312311313382 18.940944030040182 19.011803373572278 23.817751778429454 22.66725342811527 16.309143553994332 13.89806710534358 13.053597117563394 13.020817790880802 16.27171316463475 15.763259841095115 13.813386460143137 14.30728769819139 15.90146920074292 17.13069793289824 16.684572227081105 21.31757890988712 23.803427466193142 22.60365849419961 21.549318745389495 16.011757886720666 21.20168017423627 19.79850626781074 21.812349317411545 19.278821955450464 20.85796444711732 23.510426307096957 22.490915361103344 21.67654184632325 19.894650804045188 14.65520570923456 15.304535543010013 18.07728285303017 17.00035486731578 19.094396870356533 21.575495985741753 21.681791149443917 23.019821085306656 17.92684889149882 19.191206727663687 18.07237753991182 16.70364937137655 16.153560903236222 15.122425185454146 17.442848934651124 22.103880532766937 21.424095811247856 17.943232106907818 14.85779464907272 13.747489299094589 16.474710670199137 13.92124681261778 13.65263155570563 13.22169189687741 16.7226489461934 22.40928729280818 20.85122648603556 22.11553315096457 22.46173157035003 21.97280072724898 22.877666283541792 21.24130102777109 21.72794115762773 21.689769227270975 20.698155730090193 17.337450920517607 16.94091583194632 16.450897810083315 15.481948104317373 12.136619326437076 12.333297578223613 15.656794143732677 14.508846528363216 16.599478885988493 17.183967967562168 18.04839418613452 14.20085992900172 13.053006653919294 18.366413322229715 18.183678144040076 18.198389052341984 12.987902325563008 15.46774123161625 12.75857012575045 15.011223979474721 19.97387402558018 17.225508580514063 15.269541852366777 12.723101666106071 13.628435760767406 15.816703849751155 22.179863442044653 21.250852616320152 20.118019483381058 22.08171868975104 18.54476967141428 19.381172129393917 15.676786474336085 12.552751905161939 17.60211330866641 14.52240286933753 14.99505319619306 14.853348456617539 16.824487783683875 16.297199093525915 12.604597707025627 10.264287582665741 12.662776326857733 20.583062805779537 20.56171426920847 20.442986169469506 14.555005989458735 13.862675208285507 17.93361271505382 14.921005631065826 14.263755937896585 14.868005888300047 14.72428772845275 19.80896791918426 19.324349814147 20.77633508299875 16.02241809324723 12.857040153083865 11.413602374960876 14.467682575306311 18.379114228569307 22.424746585843966 21.0399539780032 16.15691759030804 15.631006158450907 22.1562531974287 20.772061627571375 17.101054681925042 16.59736097850972 20.930603728935065 20.204771144337222 21.304290558183297 14.97995363227416 13.852851859335535 16.2882420532464 19.384009203652283 20.283150312358988 17.446890968989514 19.400615776784818 20.178446018582054 16.66334011052829 14.444853971729659 15.583373612435839 18.330624722405794 19.139140000945954 15.3280244733253 12.767936178053022 13.929123982116192 15.903990348826655 21.57316580436444 19.067950895252032 17.867515617681626 20.31428419555262 20.18082587568316 15.305223532259529 17.907801060810133 20.235956285063214 20.463926974482703 20.41037111113209 20.48958982970531 21.886179125520595 20.807990019769633 18.53693242958506 16.741642767223805 15.226812110901884 12.302789253065129 14.655930668397515 15.00928557050022 15.406465217334729 14.482476758317532 13.955729916879768 17.921953711078277 16.747361557567032 18.392287949700084 17.327048537429693 16.812915327433934 14.40787904481953 18.140482519602898 17.549235440816805 18.849539107606137 15.584400826735866 17.346691898603424 19.26774627498801 17.89549769622957 19.717216107978178 14.789136226178464 18.49144092863477 21.417063176171876 18.562744207283153 15.656377975314234 16.878552374618227 17.41459521264951 14.367992683393101 12.855161400483263 16.515972276623007 15.567999898134799 17.60612531600761 19.041393228518665 21.592107545252514 21.614178208598993 17.40913403502954 14.749044215332285 12.323782063144872 14.817362962055025 17.325487276497945 15.302447254099581 15.921815636524288 12.754733929020553 12.334810205738258 14.594752629007484 15.503847233566521 17.775612145881688 22.542627307030642 24.211075132457218 23.974579932482825 18.36282749185198 20.55739301480258 22.913196026330166 22.318161213545597 20.591191218308253 17.401612439737 19.050677204735166 20.129806190543356 18.928133677075074 18.794487111547546 15.505916773978294 13.376123616468364 17.238761243229156 18.024760419267878 15.632987034369528 18.032734762827726 18.990958530396878 21.512923177688112 17.727586493714032 18.016540637735282 17.731033448215907 16.16029062220172 14.728601078743216 13.833024259026221 14.011632863401859 14.875538130734315 17.28006713599311 14.208571141542876 15.22243248123325 18.2730128731844 20.834436273961575 16.21389674692838 17.22334930140837 16.153414004577808 14.444754184392984 20.911531426087322 18.211209186248812 16.675332155136473 18.569977443240763 20.543926476725268 22.587588398356623 22.341538546816885 21.93129428547584 20.11635602867195 20.5206019379819 18.30590141447373 19.972025612362767 16.343873505675152 13.764872852605896 13.065179004078626 16.4882568650736 17.199408190886476 17.757409375483014 20.22688423914229 16.949518369829097 19.46704126754287 17.949469249612754 15.874896697702749 19.636560493802428 16.5512095070654 17.951051476794685 13.623317148985727 16.081808091825078 12.229538816166976 13.8038984454217 15.513143798184446 15.17134060861833 17.908039288505805 17.564518243532778 19.477405401579865 19.65838315262327 23.61300345854356 20.881915716276787 17.1681426391692 21.265750412872826 21.124175175091885 21.15219008754417 18.315010833410287 12.642119344912887 14.465597673073253 19.960584362466253 18.918290490652048 18.785169134469694 19.592170355969493 17.060771103605106 17.0116956792831 11.422188721766704 12.332535956286863 17.767599456564444 21.672469335859564 19.32011745167399 17.68073904871603 16.837131607735348 17.40069023076184 16.43526434786143 15.536931709498472 16.647881953989902 13.04405949931029 15.882070906532498 15.8497811078493 17.593140906090067 13.785794388750247 11.10496214291051 12.204593846155307 20.270153516479898 21.02245720433926 21.43598872956264 17.780697379020733 16.523673419585467 20.427437862624796 22.36278243608681 19.152199929729655 18.552134062019018 19.257705956532185 15.790069199500246 16.13394743862839 17.42260927723602 13.967553758663083 16.615274479866784 14.66103666031746 15.934480374611944 21.24505616838786 21.19520830199627 18.62575991754667 19.513424777374205 19.91998217722291 20.850220048390156 19.308765972647677 19.86457159451894 19.16181444008189 19.387982170092567 13.835877425116353 16.485806521729174 19.989042141374778 22.003420066950675 17.017701156824227 13.939961114641383 15.52478240721831 11.992763115065996 9.889305929010966 12.664172879042953 15.353260406019157 16.014333662313827 15.536021648696993 13.09154774471378 14.179365457496544 17.45629702141082 18.380784454333526 18.905081651798433 19.437504879573016 12.9927925861632 15.765542824036146 17.092382744415485 20.042221451017767 19.712060954707567 17.608644572981838 18.765284482982825 15.102068806852476 15.067039649428525 15.555845125242582 14.87098107827494 13.287238742235216 17.353476695388053 16.424027655115314 18.171721648100238 15.193429160174132 17.287127178261894 18.97472404278957 19.505691130658338 16.475830426601966 11.047474629856199 13.60108324926035 19.175735023125135 17.511281008527057 20.164800534085348 21.226430507582613 20.658576435183974 16.207860270899495 13.558708471803083 13.520057620714203 14.653925431315958 15.619433671112759 18.650043349029893 19.927181721741118 20.78057122572371 19.046696194473142 14.073828112681776 12.376642540976379 15.463193965634572 21.207366896294182 18.70896714505527 15.51919667980552 13.91356343574671 13.301060681334958 17.863028387436714 15.663936640646128 18.115567757014773 23.253011204186357 23.435735396099496 23.76043483872933 20.63002615523423 22.019318584544564 20.912914001313386 17.52576457010199 18.10081313566805 18.09331599401637 15.494587951709667 17.69884143985017 18.803969099746222 19.91512244028652 18.611886764797976 14.641686472861856 15.007604708778835 21.39984607467481 19.8812248009895 20.470770606972213 17.369116786715058 16.152237603133116 14.098015141627615 16.907179184691696 16.096837437042822 17.70801658486517 15.303080136183178 11.849357268491248 11.334968300333442 12.547086477586488 15.925266786540332 12.417680832417329 13.185433069566223 15.744819078498873 19.591735002734897 18.25360395492655 15.716610988695358 16.931270516539897 14.477092521362998 19.777396159972028 17.887886682302295 15.118603529764448 18.641824190668302 18.36361300659959 18.321253253562578 18.33487913090523 16.39150611357147 16.180800280409347 15.157656963342163 17.031265214296866 18.98404337964638 16.95967209797305 15.644254577738472 18.103028516371275 21.744556643852228 17.957538404340724 15.651911429891873 16.85739463052652 14.837427762931215 17.77745436563787 19.80795191241904 19.850017018320823 16.632917278572165 13.20955988012168 13.830029580363172 14.699562367549174 18.96218078880226 16.329811049101245 16.560443214476408 14.769619274044427 13.690055279333343 15.00663394064464 18.88257756197343 18.582903747616662 18.539277755050684 21.95904255578274 18.982922904859528 13.946835309744342 18.384752594528493 14.649796996855999 15.7559052030023 17.772220172827954 15.252592070954936 16.790526739783 19.237828846877754 15.002979715784125 18.319210412548 18.266411450434422 18.306400768621796 15.051269270734496 12.136993636426572 16.646810553001536 21.33003121931877 23.24092670355645 22.13647835298651 19.831437575944378 19.66487943191565 18.956103521040436 19.83476697633394 20.820695779454482 20.472133842889495 16.685998344503272 19.48676942987988 20.618743341437842 17.1824820206828 18.646537932786384 13.947036065975134 15.783624950988267 20.600962445535423 18.626105631309475 17.879577260085675 16.115619258890067 17.968184067177848 21.555170326602006 18.27102215125012 17.97112537722634 17.435743625964907 20.572147614719107 15.15034725224592 15.175680301927326 19.100195750496347 15.68220929498942 18.074000484200493 16.505317210881028 17.902149430221623 21.16136274382887 21.250396687022125 14.99220490781739 13.893375061966985 15.143660394654784 20.777699309580058 22.524778490141195 20.391313767785025 22.156316297770545 19.733405528292316 16.615831562031218 18.19766063803184 21.05218459302846 20.976979871793997 14.617719081636828 13.953963628984456 14.51592310914378 11.623122076449603 11.415126289274626 16.016418723057892 19.597072952250695 16.97799759528033 18.822079523192894 13.855496598187289 14.293589525592685 17.095106140696842 18.271969705709598 21.641936969980986 20.837849130121953 13.266599971168219 12.196445059744839 12.776760276334004 16.574413918740348 21.888593314636672 22.53085223431044 21.12578932662618 14.491326368071954 14.220773048693669 16.350595855613303 18.107377115138455 16.247275497366854 17.931215039908615 17.86698609359734 14.966286662096174 14.021821411538273 13.901692967865857 13.786025370541596 19.99710069970195 20.246682505262996 12.647914320839151 11.715330959124966 15.073640517197934 15.158686526065143 16.80113202617457 17.01586207076666 17.055580151080964 18.204138697198747 18.90883420233939 17.723379992643885 17.799151345479505 20.826361366405155 20.375040585844314 16.594405762640747 15.969679003652825 15.846499447917232 16.561804239397656 16.44294110026186 17.691721953261773 21.804422526813838 15.700250443584915 13.441721174782813 12.839903170366993 15.669313032912399 18.10768388790011 13.369523981923491 13.650366022655588 21.718666342706648 24.37936424155026 23.38231691900895 21.008168602722844 23.330732522102945 23.98236878525 22.566602776489983 21.23813938312033 19.101622364576947 15.732153273808288 15.548454688456868 14.949306048690005 16.05952669871693 19.56125387278841 17.24059890031077 18.056664184019162 21.969743514493064 18.32229508487408 14.868450822004593 13.101466875351987 16.93627317502077 13.952956674999784 15.396730101845694 15.834197582029253 17.424970570025938 19.245796570343767 15.486944958849092 16.38735673125962 18.423510231174546 18.355656748728897 14.594073415243077 15.806219421801508 15.624416712031515 15.503160657919112 18.619536213100556 15.877727716330924 13.730536238879244 11.326975138505881 15.216658788370342 16.371878143928665 13.461879448546346 16.35973734013357 16.32893658676988 20.59796563794511 22.40400270304745 21.957409660423526 19.373906561978725 14.661341235203883 16.341909743992815 19.579473798382647 18.31983274836599 16.5519263013025 17.690970821942656 22.171887995952826 20.36812130240679 14.53915371048397 12.759076083945628 16.132835027261233 17.866688585938974 16.608321818098894 17.16633084960096 19.13850961537096 17.763921235578493 18.07884756061141 16.630382280755118 19.818066329561756 18.488129931828443 13.696601862436825 12.541796452886553 16.94232804581042 17.95521327334434 19.663765180825603 18.50661955999407 14.98638314483359 15.869165839218724 14.100823865757613 11.681312860180903 13.109717675788719 13.144924192044996 19.094092432282775 18.020571941673182 16.468818244416745 18.69883964301313 16.76560117590142 15.237854996127833 19.899232312150126 17.255340570048624 20.25652774926801 17.128689872667863 13.379517865599604 14.49282528221089 20.814124499913607 21.90431857307652 20.990720384789043 17.276749424055133 18.01327908384031 16.02715409836977 14.174480332863782 15.790170544891021 17.93207940813689 16.01143441461376 19.325925903755202 19.253180488061343 16.01543935963442 18.109872755437582 14.975091382858055 16.55310111563829 15.556701067726856 14.7131300368045 16.594855208397043 17.984066188833555 20.382981063130636 20.668085917419937 17.352766784294364 16.52251690681627 17.06891128754915 21.334670465257677 19.747602177592814 18.914074531264525 19.763047874008418 14.691705861287977 18.335582982613865 16.336739322390315 15.267770878989982 14.433074710225974 18.54241280880776 15.081143163776423 12.186987506474528 15.006493398769457 16.908262766278984 21.876085890807744 21.185293262665933 21.914356567056217 17.588119696484064 20.12411076016175 21.48518320839717 17.24197982630957 15.038873150602456 13.312433748788285 12.4183546250952 14.533844972291384 15.13825519891968 16.03382287721932 18.642292084159415 18.39692578451549 17.32551238904134 20.67736051484959 18.83518271606271 15.799040420470362 15.29278824687475 19.285481567372653 22.509589081798577 21.61979093599744 15.969774724153298 11.815195470606572 12.706050460257998 15.280911128186805 20.1545624318442 18.25038547689501 16.05192887470708 13.962190024389633 18.394500842667846 16.888985047184917 19.070953944373294 17.9240716346844 19.913257565863677 19.876559004871577 14.122724209915875 17.346450211720622 13.846239546288542 13.026543944456867 17.4881990264177 21.659390214259954 15.196854573448872 14.491075777602646 16.778020194371962 16.242460463130676 18.026117742225757 20.14934745203626 19.03147737553946 19.013506831253235 20.180573392357317 20.863591575848588 21.920403923833277 22.958061543491137 22.57357746990882 21.215085601505205 21.56743102049197 21.674328524000256 21.119753312881613 18.63867199143855 19.758401886960435 21.071553820531275 17.39875083080555 17.050568917138705 17.52279763744053 18.381634299897872 14.970848555149473 13.561576414449894 15.096494277154259 22.284809990515207 24.13569340787953 21.324274813196848 21.169015328435172 20.197373162514943 21.673969668341044 21.40623869249003 17.76109595541594 18.900410506123627 17.007695801413703 19.48012784095826 19.16212847601229 20.839232153938067 21.084814435860658 20.81068197280853 20.063012135412922 17.216070143823657 13.663874124170103 12.631771424117042 12.784624397066226 16.32502277728897 17.979785230904128 17.787075485624634 15.965406836623314 18.013064145147492 19.38251827731264 18.088542763056616 18.00621919482212 20.799773087809182 16.265643025109092 12.941050140572933 14.504169316350644 18.21290938533575 17.711566096890326 19.322275974320537 18.667066648284482 17.35175217152976 13.75623203247756 17.756666474621664 19.261554383619668 16.798492533427805 21.83739433180551 21.80159458494395 22.705814390868177 22.385542161817536 22.657791275861975 16.80785980900392 14.393700906682211 16.984842039908965 18.717304434334626 17.863352341162983 19.714500420096556 21.861444427265607 21.40131030131022 19.57211055628212 14.636991251719536 12.6150794361935 14.108991773743258 15.235891577656073 16.08283370691855 18.09711023388158 17.23765281794123 15.112748660871793 16.23565269871834 16.522879643519833 17.89781915061858 16.229302363214412 13.098708796484564 13.141154631274224 15.298488322089565 16.932843682899513 17.185862919395273 15.646591415380069 18.33399483578314 19.69017298672215 17.799069321463428 14.055331166251598 15.92089373720014 16.592382077942037 20.070962026999066 21.47271290412364 20.982983364648902 19.544349224214105 15.601236709503366 16.658641611064336 18.562256623437584 16.056753014975815 20.20087394323043 21.189780227421053 19.352105689203615 16.602717751607294 17.41059092076709 20.917829748581806 18.23418860894026 14.160505964609447 15.503804839785738 14.511318746482873 12.48030741637038 14.106774697380985 15.978265826330544 17.038545991711487 17.15226850078433 13.233796073627598 13.007509005054159 17.757761093628005 17.87204356206716 17.128724947267212 14.865555971610128 15.030465410551717 16.814297791658163 15.387015133542851 16.306447605630176 20.009465935105332 15.560026607171345 13.937026445491677 15.366676376519177 20.421166670482304 20.708781292854404 18.45087589644477 16.121609472727464 14.56163184176015 16.952605819710314 14.326576463869866 18.306782976705094 16.386176294523843 20.758623257059515 19.71000792897854 15.963669913028093 16.260252507488598 13.247127981094836 16.445944102533996 17.351815534720103 19.93180154409117 17.989597437051334 22.23683771254521 23.581930488950686 16.382496099401756 16.993154517183363 16.775674787588574 13.357952867045586 17.097913990607374 20.872532948309374 21.20684219281484 16.4672421442116 15.032899348579505 15.431431047585829 15.707116168507188 14.559156494240607 15.968486100065604 14.01754846718371 20.14701820050157 20.63274548740425 17.76705993227366 17.54998002037952 13.209301448935822 12.876082814382222 17.31148038687964 16.35078404294009 17.061179426178555 13.948130668806476 16.602516902435383 20.151045511093937 19.062413132077026 18.35210555266681 18.3005501136118 19.091106968268903 15.873543784987165 18.167351259977295 20.873674522128567 20.470502137143576 19.623899831186076 21.602405465335057 22.484420103091153 15.987911734955759 16.7132113144076 16.18217075440565 13.004935292628907 15.105303885845883 17.277705291262656 15.239045789230273 19.241376527591132 19.52249511940918 17.427600323680377 17.76372061787733 19.412346134440327 21.670232957195058 20.779810460217767 18.820298341168794 20.812374039322904 18.72448860562492 21.031079700026684 21.16891820108442 16.837880274956728 14.973019797900454 14.788267837747775 19.22044140292289 19.590167870197575 17.123493562979657 13.654352141155766 18.494950174512088 19.92835396578192 20.366567235399536 18.44908001990576 22.733922524981782 22.886785517688313 22.964135505916428 18.8991748176621 17.068260087571197 18.388813024133636 20.65938780528741 18.818583072088412 15.712583336831077 17.347137456271618 15.93767066046372 22.016792885925028 22.33518124285896 14.694089231518692 12.412087191056965 14.275534549604725 18.69371669280662 18.342820115240205 15.581878880011846 17.854204289827557 20.394697269963668 19.153733151963312 16.37205657728176 16.847230444453913 15.545067889818139 17.578193208382057 14.628202407217458 16.506420269147394 18.09687244853822 18.38686080562904 20.123582880018134 20.84426495426027 18.10085557178212 14.096547242052942 12.94143203778129 17.02016461766967 18.526993043230316 20.1324729904324 22.132645875973385 20.908235012385873 19.864330591407377 19.46050738967534 20.198627682706874 14.818573288527398 15.664236852645711 20.87834485863845 21.022071922106033 19.576311039138524 23.02313545400273 22.02038523705221 19.63386490602709 14.630549369463962 13.996891954652973 19.0931207241733 18.169172137081674 18.23593262338852 17.709996747322904 20.116405497010668 18.660625985093855 18.11535561738623 18.265390982925197 19.911016905023516 19.868134163598857 17.69432557768006 17.499671129559175 15.027628978120141 17.372713446807385 15.68275774634441 17.89152064113356 14.461407044062138 13.927741950102119 18.318288906684387 21.359960545819067 20.14040350843853 20.905648585036552 19.696374995522373 18.873374919556124 17.19188375585809 18.800169570663392 18.62422771469988 18.08948867072845 14.641172974758595 15.156985535491428 19.089230743315916 18.17030633666419 15.998664532754205 12.939766088759937 13.450656504204273 20.017863479184747 21.106470550423772 18.548180714483504 14.32447965615034 14.711134212545325 15.236817568774299 14.906774744505757 18.834041834368684 16.958332555908797 20.240144531356385 19.60774831664309 14.236355842659279 14.62252338021144 15.143684685844345 19.946650684295474 17.70246693389952 14.659421117620685 17.134282353032095 15.932001380377512 18.559438051214762 17.086038409376897 19.614669646528746 15.945596263494288 16.303211337409767 20.132184509017694 19.049218421112553 21.015874651655785 21.85101317978438 20.468876686430495 17.424908526060236 16.849192632279642 12.945932820533084 16.800888796582004 18.30440048746173 17.395696181025244 17.2746272570641 17.515732097527543 19.794049122413302 16.47012453722409 18.39346685437847 16.47921403678267 16.844594617851705 15.312784237833824 19.618546016924697 23.861792138994165 20.32343261069486 20.637949892432417 19.99924940976749 14.50711856781482 16.684678136180107 20.19234600405885 19.774361730951046 13.423336354879869 13.573390226496779 14.879035560111708 16.53672373100106 16.95213091997695 15.924739587626537 15.958083258900475 22.363551848878956 20.321792008529183 19.538067145710784 18.27662450820687 17.27143855874081 14.815076125030565 17.354580882767156 18.02131183391114 21.100725910693267 15.728668685130641 16.333642459045937 17.196746812912348 16.246917697220585 15.846719240340493 19.18882919298352 15.225258876431312 14.280945497807359 15.798202777915671 19.55496803226214 21.62847031675815 19.594835567650374 19.725201071354128 20.092749640063182 13.657692767534698 14.231120025966256 16.209295471412087 12.021886139199363 15.466892322313893 17.848643838207046 16.11645657879388 19.759116242034068 19.45259534801201 16.885410259356203 14.081898491158968 17.673657828525496 18.7596936562008 17.704041907575927 14.519657143678632 17.12993464251983 20.79180737990042 23.12552457223772 24.145187052466756 19.016089219943364 17.26682299783797 16.113136157937504 19.763631320376927 16.28862900024506 15.942063356365171 14.81429507106139 17.93509945885404 20.994119061383234 21.49490078602577 21.739325128283326 21.31053200777956 19.118598928127003 19.507897869941306 16.152596556994286 13.29708675004119 17.077043872602715 21.256243185406333 15.570924940479195 16.766052310234034 16.713231247994894 16.068945565835946 18.999883544499593 20.477211429090826 16.16683953630868 12.168891553191717 15.313018698102715 17.87621419852781 19.03942419348458 15.959308661476841 17.327962775578822 16.531211524613337 15.452751644463632 18.136531852592753 17.9040688321083 12.519804057323828 12.182392337481676 12.853411727597189 15.711025371573037 17.816161268848543 14.301126799484674 14.684196726270644 16.73379071155155 18.008254750803484 14.330608719679844 15.264295803316223 15.906625442933672 20.42300874768415 18.9323535357232 19.339185180975875 17.461148482230257 19.16693089475987 16.784398698493167 17.28791679198246 15.244549055265502 17.582359972751824 18.973981472363036 16.887401745681725 17.419054842203455 21.094968873635658 15.207419547716844 13.855242642200826 15.59671774133342 18.536036249138753 19.521140018133977 16.14055653471655 16.992993324075723 16.0365654492244 20.14727663979573 18.087512824113603 15.13740166663314 16.13037985422222 16.88654784098374 16.115087548067148 14.652105665033412 13.611587250289249 18.055856133741358 19.551492295442102 16.03970506255287 16.681347249869567 12.668469731932984 12.060552766821397 12.941221122603892 16.39142614104527 19.590651911434726 18.739457191917793 17.72032320434304 17.028915712448754 16.489627792369397 21.90187126784815 21.72433922306214 20.887612356266487 18.14286306155253 18.201366961088 21.33386246442118 20.790628622268503 17.8877659155283 12.968580516311118 11.460335156641873 17.632471107497295 17.602475650022892 16.114581049546246 17.595269550775896 16.517103360109413 16.326409602650514 19.098526347944006 19.716216435453756 15.135965118526745 17.22228044828283 17.902363171613985 18.84981428110602 19.836653673240118 15.956151622595646 18.98114601546324 15.318883282108356 17.39453790876612 16.99279209510399 15.68338293806208 16.17583989266114 19.544148646689322 18.84653839725117 17.426417633896087 16.929236912397936 20.415440993031584 18.94001427467606 15.38094436250428 17.94208269720184 15.760560927081045 16.59563956361698 17.859197869381692 13.7978310291232 14.995926992872079 18.01007652959514 15.274831230769953 16.087912975568607 17.808128417730803 17.926590376986308 15.443167318737848 17.45560590193236 16.635693143090435 19.201862762807664 18.404046893812737 21.00546469855342 22.110801723956293 18.188831247232983 21.2887603234554 18.76117541282262 15.392992916021942 17.09373993595425 20.846189200662508 20.67054045443102 15.624735295602795 17.73960757789952 18.46684086589841 14.8595382701546 18.427509120907253 15.074916838623823 13.831628554999064 18.7316973880274 14.164894641376678 16.39660916446414 18.094764743888675 16.851211918521695 16.39433254287664 19.014764832881482 17.67825726886083 22.46385556729711 20.31755777765785 15.578429442607762 14.873256863712784 11.300038798192586 12.502615714491169 17