# vtk DataFile Version 2.0
Ocean Simulation Step
ASCII
DATASET STRUCTURED_POINTS
DIMENSIONS 200 200 1
ORIGIN 0 0 0
SPACING 1 1 1
POINT_DATA 40000
SCALARS Temperature float 1
LOOKUP_TABLE default
14.613725050783195 13.89026264298788 14.692479504850953 15.693343738981737 15.74845792937398 15.489117153960086 15.10684209930346 15.91667453783768 17.118585231359862 16.590717212206002 15.659250377571189 15.594564994519226 16.57452446564832 17.545602364843226 17.997264724553844 18.56910615095039 18.648257940882306 19.013819302429614 19.817215391147226 20.20455392749781 19.03372626750123 16.78126748225327 14.807189127613826 14.111967907862216 14.387356254953417 14.718246657859957 14.943067531256663 15.40713122238417 17.098818872841917 18.620220053469822 18.67462272242136 18.172099295310215 18.785888075279157 19.660793503126943 19.653145418982156 18.61884989964554 18.118703720585266 19.156439684376004 19.399850374577518 19.744055605232155 19.92957482697206 19.96571397234084 19.510081652340517 19.073667553381796 19.556504549367826 19.561414511072805 18.04334631699381 16.605292945958176 16.236575162432352 16.354067402458192 17.199774794942098 17.8906755398704 18.339319017078022 19.085216270380098 19.606696989720596 19.821623999633726 18.42158552637467 16.494970375411413 15.45255540583666 14.974519228207544 16.177222838136778 18.722726094815634 19.973564720372618 19.57059539158386 18.397420634762305 17.885227132400523 18.14111607321581 17.056128337347573 15.590654536547591 14.999307294105002 16.01868340942673 18.187701671989416 19.397968283528407 19.344642422735703 18.716492263907185 18.227555947822328 18.44386742285344 18.620685858347645 18.376277311794464 18.185505382578587 17.17890498974935 16.271133485330473 16.357776362791604 16.85773684773306 16.365014339541496 14.723954876191177 14.245988203898122 15.53206217840395 16.54887218541083 17.10112384359156 17.107182337400587 16.03436035905808 14.671431712750731 14.109445859229195 14.363897809803364 14.070725177922332 13.819353390295875 14.015666039443865 15.206072518058031 15.959324610346176 16.663197470950745 17.366431067093533 16.796191495384694 15.692195562793858 14.652115046013225 15.096311302524946 16.93005542153113 18.447235032156215 18.693377087519675 18.74590052113462 18.452708558654496 17.40220410905627 17.52379610996526 17.13596458198296 16.41923720615588 16.830580154249358 16.370502942743386 15.946620643420578 15.947858063598968 15.913199770924214 15.334009795520531 14.495877038016276 14.86709494526395 16.487126272908956 17.809840064815635 17.556760291570384 17.11426270302977 16.811374209293035 17.329507274025325 18.02370009306616 17.750010514042625 16.889604533724206 16.72657485180392 17.748592597278112 19.312731808574625 19.4794358630486 18.777834462129636 17.712422690314224 16.40477432289401 15.506445139428598 15.5833037058466 16.925533495455856 18.664079395514896 18.85423675180055 17.859586563534787 17.400507926721133 18.601742670818194 19.321056880439976 19.197165213570326 18.958493970529744 19.522367473129844 19.954689462269375 19.619278553675404 17.73130106871797 16.674493352700328 17.094793200472843 17.70991482316745 17.549291546715335 16.82544325141852 16.312904024739797 16.547685889543747 17.082382327646098 17.579770897017468 18.723771159461105 19.259311628803342 18.362387327705477 16.77966622774555 15.858292401072218 16.44819415126432 17.465991714998296 18.874836034277752 19.15497388251742 18.959895147802822 19.239484493134345 19.395729661371714 18.633148655616957 18.163051064608663 17.804178415021486 17.828770021048303 18.945137126767285 19.72020486569344 19.736527984960514 18.074438927809545 16.69740530796447 16.3757401416504 17.025408037704135 17.48526552185561 17.96011551237727 17.51644748091721 16.704030217625007 15.571857733498483 15.18584219610418 16.02721005428706 16.511157978134914 16.899162907676764 16.898783630329977 17.45554973188892 17.98407535669532 18.003935307683005 16.642158959236852 15.172283116414318 14.628249885890185 15.792212103750964 17.123649154371613 17.337462056215447 17.01545847197825 16.25732930376607 16.858225426698116 17.77123729084386 16.990186065381547 16.091368145055245 16.05545994456806 16.642211872746348 16.855624666751144 17.048684759671623 18.176898329876003 18.593173293456427 18.891895160322733 19.802910251282164 20.707533222324503 19.744310316728026 17.10293916865034 14.783994088546512 13.856986724319906 14.33177314307679 15.224379506793914 15.294105154177014 15.030727815724104 15.494711110861099 16.47470050269734 17.213661004102285 17.85317369910684 19.543036565222582 21.23918416441629 21.502582129816542 20.411178067915422 19.196708478252724 19.807406520663957 20.160731518515163 20.337799501951586 20.099730414351033 20.15844505300962 20.361834590632387 20.216359390858802 19.971226695870563 19.08313806274185 17.247161662875726 16.267445256652802 16.67622817603749 17.196937199671996 17.998144388298567 18.954854976439492 19.57851046988426 19.87294877212909 19.267286814722343 18.865628275742754 17.785312658249563 16.437311043717454 15.529484655460573 15.18396630189677 16.299002911510087 18.296440502802547 18.98882312582773 18.055339536639647 16.987331377895583 16.847227260545942 17.239830993283675 16.36185284643393 15.443753983791893 15.313617675938097 16.672619881179504 18.98443151828466 19.8582505057203 20.004574645379652 20.106719653400532 20.245993716882825 20.52220073541618 20.348811425931725 19.95668840020584 19.528386028189757 18.585172528437408 17.460842330584146 17.023920276747628 16.566040831879285 15.578003369054414 14.439444392362667 14.599463028930616 15.696896979628187 16.34060211452933 16.937341457307422 17.108039865756087 16.692505872506242 15.622666346199427 15.240892866657122 15.957611359270159 15.904012999683061 15.411216857373594 14.639620439815774 14.918794326022807 14.97535166015151 15.749947316800489 16.825172018762384 16.597962389511707 15.88816812286167 15.27090122065331 15.815212900695316 17.517252131312134 19.413779265455076 19.707485068130666 19.50351768559484 19.477246965389934 18.610684803702725 18.052779462859977 16.757347537614198 15.556970584429418 16.041390660504785 16.148107653163965 16.099708874772716 16.33901418860362 16.486023222859743 15.806267854780703 14.415439992751407 13.799814199587217 15.371583064976326 17.92377488251811 18.8436335734274 18.312341599052296 17.02941257410248 16.76443187338417 17.201716654307514 16.836999556594584 16.26241284768432 16.19113664402258 16.815891241932242 18.330545037539935 18.802194752650248 18.26546417833858 16.629695032897185 14.972049225225794 14.667462332677687 16.066661368969328 17.96379226363601 19.369308262998455 19.0667413342015 18.008611338691882 18.09930954932832 19.348570601001654 19.42750672212123 18.69527292309612 18.456247392167587 18.947091714915455 19.18004199931397 18.694463706724058 16.84328403528105 16.089027682802083 16.656264726218954 17.83333083949833 18.523643089874174 18.214270986893116 17.80288672610811 17.671995357825146 17.397277306137603 17.359133982086195 18.082887732091265 18.772579553098097 18.34957956674796 16.83636933902572 15.608882544859105 16.18999127432155 17.715556511654878 19.130859798797694 18.718365644218867 18.035803584312898 18.024622678648228 17.55290645157993 16.67307631575799 17.029032402139823 17.71487924850676 18.120306777572072 18.63145027452429 18.827069164063197 18.998481597180007 18.42377378831279 17.644204556360968 17.1254153646957 16.662341057102324 15.889999021620698 16.11364404355483 16.36837165707895 16.484713695973063 16.188257808262023 16.127380797878704 16.724958813867428 16.658711796325623 16.745395270335926 16.63814405123577 16.655146723433113 16.69785806489638 17.18499058873102 16.588074483499504 16.392734556625136 15.871695351671427 16.69462214802158 17.788449265684466 18.011020568337592 17.424155062016464 16.23396350003129 16.86057539793835 18.01288830621238 17.619453869821875 17.10771509822899 17.151371993232996 17.076455513667796 16.264279611151643 15.809702215524357 16.58651528674692 17.226769474648208 18.06982642340992 19.274702548528214 20.261939779355945 19.71462237850867 17.503789103099354 15.261800504640144 14.310792146210924 15.135071468223396 16.32296640414396 16.03355466863786 15.158637988656775 14.556239558387112 14.89402360245224 15.903135896880428 16.9200173734545 18.982700030982716 21.448292642275387 22.45582330695161 21.824542907205345 20.4872486774335 20.70994234098512 20.972226793445095 20.619940310187943 19.833392612557958 19.229824266272182 19.19549335400397 19.335893933401884 19.16454608117156 18.457336217653197 16.97697519460964 16.11646292754935 16.832924606332252 17.736709700859677 18.085497618257016 18.60296102201358 18.896306083376736 18.921559014462336 18.080948857851027 17.751630277705406 17.220504483474464 16.413706190627032 15.437836970721198 14.688598087068051 15.060076721633157 16.230238153442887 16.785649999368896 16.058684020180415 15.903664681722752 16.75844055874673 17.568288912095834 16.90350396761972 16.136529921880747 15.830710290130815 16.516444603275737 18.35901923043677 18.693041739164624 18.575646699450093 19.212844260559834 20.00593628759523 20.672781989574375 20.659156018983612 20.138949334729354 19.4017583030588 18.63935235176737 18.02872095315961 17.743013372958135 16.75667398009545 15.687432977344235 15.443120179763463 16.248165697719738 16.784483866407175 16.89516688957427 17.225903794196338 17.259213156594946 17.488833496985666 17.13358345343797 16.83454150710057 17.027382448313 16.489211695681377 15.966581516605494 15.278281172841506 15.403132860354411 14.948450691626618 15.14417812265563 15.744060741674586 15.988173747388235 16.40110781901411 16.85135788323566 17.60163449116822 18.754544497920133 20.025774337536532 19.553413788533387 18.6799849361604 18.94412844921203 18.67806360504121 18.305450111070595 17.07367917017027 15.736427945221436 16.21858626036335 17.046344844725386 17.204537739675136 17.523698758487022 17.57497641913005 16.767478506831843 15.205296476635187 13.996346928989672 15.289526023498315 18.172911781751903 19.80322580152407 19.398209841006626 18.069201846885157 17.427812656119137 17.366782827263137 17.038597958056013 16.749962209059213 16.574269635546536 16.41702244810399 17.359729350750186 17.77800030087106 17.300315413543455 15.841409589546013 14.468614571505094 14.99162358165215 17.17954619819074 18.701584957538337 19.220805084848685 18.6057191584153 18.268011769366794 19.020600138141084 19.63717549195873 19.171716874536713 18.55342416423443 18.332211772694315 17.86951047729894 17.69651555171368 17.500510641883793 16.346885741313216 16.158022506644414 16.47544011503789 17.643953239687335 18.99575769206457 19.062477016475956 18.20827485100887 17.83806559131251 18.00172238697942 18.605661739788452 19.191637789177296 19.487233940642156 19.152708615323352 17.881702806840487 16.622974640512624 17.172273199375258 18.503101772617033 18.993556341096607 17.506460084666514 16.15802480506188 15.67675792975105 14.782151739106009 14.270992192954214 15.367954139860728 16.69774227541869 17.177387185909584 17.162389999462448 16.657175719324037 16.885237963328894 17.582327790673258 18.13149334712095 18.302968573883035 17.42263617433584 15.549892173106514 15.238085032757848 15.99804770835738 17.246987286169507 17.958304799156792 17.90098213434454 17.548038903392182 16.45955368600175 16.12543341440031 16.164560829272272 16.17749055252611 16.179509400320306 16.93788709551803 16.972017880476088 16.772997348693565 16.113068786541916 16.535492430544487 17.45596461878583 17.98425951091936 17.08982912014279 15.254574535796834 15.533558872550978 17.002039211863575 17.464904491466783 17.91826870066854 18.295408676949883 17.971553225631425 16.858086293473658 16.04736556621173 16.188913105422678 16.821405623829936 17.901505720309014 18.980125422701537 19.483359616142998 19.12736496351983 17.674641898235826 15.935341529684006 15.290786860459031 16.405394519555134 17.70877911156263 16.922158751809103 15.501044824300592 14.649819166341755 14.936459759954422 15.870597342626015 16.42937549056836 18.294977694844015 21.184065409021628 22.665294157092937 22.443585513563225 21.43749620753005 21.41741050549238 21.235089762584202 20.338693142877855 19.35638601218119 18.44414499556272 17.832390570379165 17.981012517702215 18.21756943595994 18.25846211441381 17.609292730157676 16.826820459560093 17.387145800636933 18.490651254616612 18.355998918800775 17.92437568071331 17.389819818971862 17.11946319305431 16.5350981161223 16.663214323154193 16.722893444621974 16.616271516447856 15.822458671554111 14.68930238150489 14.562914217440406 15.312885202233268 15.683936794296446 14.995442244023474 15.210713549436152 16.394093583902155 17.488395226801757 17.322272560149703 16.47002490042262 15.823977537452437 15.856113318101142 17.26164494310297 17.491102604491573 17.251462090861146 18.112803240874896 19.00223664309411 19.78443147395091 19.91613589123776 19.248094483282188 18.179354888292607 17.385802354206767 17.52866035386084 17.91113271198643 17.31387606025805 16.798341295011358 17.37408181804715 18.321986428693766 17.818197253191858 16.720004799226114 16.40215699098497 16.583502134410043 17.391857037317962 17.78297388763198 17.701378789912372 17.219163471768585 16.259195619462037 15.926929153208253 15.987803292761033 16.573123421776508 15.999443851634702 15.332141026069007 15.124259427833211 15.546343514958062 16.535816117933315 17.58479675897838 18.089051800696737 18.500086081161133 19.019225552695527 18.019504348684073 16.726752968500705 16.933890726556285 17.01679810657948 17.460604346801613 17.258151338833308 16.56060007341174 16.89715309485895 17.32606385867782 17.230084900069514 17.797994963509456 17.947343684143625 17.460249572004887 16.000235112368067 14.861049058704639 16.18719937935271 18.988487533711943 20.61359989357553 20.199564442559392 18.867916970614186 18.100646167152835 17.68266316791212 17.488240338450016 17.633729166674875 17.609320275116637 17.25555630981661 17.865597845978446 17.988220737379898 17.295479904480487 16.442116513266 15.418644247925759 15.917122412644215 17.373137873311514 17.982975654417448 18.096699071607187 17.944824087564317 18.455697128176098 19.240290512863538 18.929750988115842 18.313723009038657 18.242054596267938 18.548648758344036 17.819017143463054 17.44034069091811 17.39604420024845 16.59747750028356 16.66872420398556 16.703972174565102 17.456414274334225 18.564512348262998 18.63327958706209 17.192310750263935 16.387656408968475 17.066685683323996 18.66385101241115 19.927010340319804 20.233165621760296 20.02761176670938 18.9439674593727 18.13590709105804 18.48337577325193 18.825354251054495 18.20297162231648 16.246852281815162 14.920361097938446 14.616602715645707 14.180727555075777 14.363611247871406 15.763443618178211 17.018010035415127 17.274499041421183 17.16313287357034 16.236817969074995 16.086474273623256 17.057706746758264 18.492046684668203 19.379635607090346 18.36295939345144 15.716393024421585 14.404874878874594 14.987029800303672 16.951699920636994 18.74503409557976 18.974396127314705 17.9593411063056 16.39903675269494 16.150754259063426 16.530309989794013 16.913248764091467 16.991894850967324 17.524049067162856 17.44459388697946 16.41175940759342 15.797346259127973 15.774739059194664 16.5466754119119 17.88879419265332 17.561393675400186 15.351370098443857 14.811190572452793 15.819797884961469 16.50378820034574 17.384371065096122 18.035048104823893 18.072726840323824 17.86656181282316 17.721939535861864 17.789432404327407 18.349411829307456 19.295967203814712 19.66658820311065 19.20765616830678 18.667944645631184 18.0183778317783 17.293720212259455 17.093101841399942 17.912388968856305 18.51690011134589 17.123144492786626 15.69145472281667 15.260201834087233 15.681887137838794 15.966720280594611 15.778623242931557 17.356272990393414 20.562772908716603 22.405484934795783 22.37466713232528 21.795908469536748 21.87533041671874 21.771246347754698 20.82743216949864 19.598875836371427 18.48071336265842 17.50523664344458 17.338042362195903 17.52137642732159 18.07074396787675 18.38401188076728 18.156117220977627 18.340811147334193 18.48440892618378 17.364810576160473 16.220604014775216 15.75974405639352 16.089155266251762 16.01821751960914 16.34012997557815 16.692004533785386 17.148452479863987 17.010975909075018 16.169052113703188 16.06323485052852 16.539127595410207 16.218702413111927 15.274925921000463 15.463671685033477 16.381429027699152 17.24450823955499 17.5070020372507 16.625640606917816 15.474419659337022 15.00116854960977 16.213582088726326 16.84071959507202 16.881105288457317 17.960371622315737 18.991530072602483 20.10083869690827 20.533319131533702 19.825510804845944 18.120199062644918 16.870504414793153 17.29729270992703 18.12805364288132 18.050877109237305 18.053123201295797 18.8025203847188 19.435459820768067 18.271628902354585 16.25605502341687 15.432604630330436 15.898760250828019 16.82860655356721 17.371664930872814 17.694551116921698 17.519597691458518 16.853313721038138 16.70766965465709 16.928180418646107 17.415849114055078 16.592700962572422 15.226470031282696 14.809284550979363 15.719840456720297 16.86650961549397 17.678085262921588 17.58769700474177 17.383550665930652 17.448408426675016 16.51342458442153 15.367478486172402 15.596166790363489 16.278282353613193 17.596430659231586 18.03344244120375 17.754419137025383 17.679704216388576 17.278258145272265 17.05669418455508 17.79114655666405 18.064803096279288 18.166705172282484 17.101472091763963 15.906736346289293 16.62789993163793 18.926133428795183 20.267454967681882 19.623383188998677 18.07758323516563 17.227576058077286 16.517723174360857 16.16301933246371 16.649558174959147 17.18294676632923 17.31658537713257 17.740160441714956 17.4058767897553 16.763652547736488 16.692985025454217 16.24146300296666 16.271088121089505 16.482666197205873 16.618771648558322 17.03697208816497 17.554060302598565 18.43362241769534 18.90676272945137 17.97930194674 17.35834305811088 17.89492799965541 18.993691489065455 18.830298616781505 18.28629806363083 17.69177259233077 16.686701241618874 16.6866812292585 16.430303643156805 16.745687994803788 17.383736407933164 17.81133289331046 16.698026793453415 15.708841730050176 16.21947364281995 17.584689395088468 19.19661286734363 19.834578780362687 19.90759539778479 19.281843177728472 19.43464396193199 19.583241786560194 18.516975156652233 17.153220493790577 15.537084559042505 14.634878681352479 15.101274505255859 15.722417590387908 16.218521455137182 16.756439794361167 17.11741429859076 17.226169099501956 17.392208587836397 16.695698333253493 16.216430683519857 16.869987230509075 18.725251596264375 19.837987299306327 18.86696584617106 16.30085289882948 14.386625121152555 14.516588499012792 16.343939516448625 18.063589315260874 18.181210318378106 17.12405869478096 16.379679697295447 16.89710081894716 17.318922379161922 17.71734392465968 17.857229596244014 18.03444937883151 17.465729855787608 16.358654698842365 16.586108109099932 16.466222225434628 16.875995482779754 18.2689382532699 18.399180482331147 16.300254833917116 15.383601064500423 15.72473491588639 16.032063927316916 16.98433841995428 17.8849994827011 18.133769070992983 18.547781340627303 18.88998022103108 19.027555836746863 19.513405602869497 20.339311663955893 20.602498888664822 20.06063708152529 19.57305881588532 19.391661015528918 19.116185448420374 18.999982623075876 19.225198632469485 18.858922625897808 17.397175276483246 16.53632780864574 16.66119066987704 16.74899243962837 16.119922924955432 15.663686651152679 17.254564431793543 20.162014680375012 21.733551611681484 21.678958966112074 21.502657773418395 21.498913433180064 21.321320690474202 20.26711667908778 18.99524884886183 18.44508356975599 18.083102126126814 17.964877423869925 17.99355263230711 18.551513042939494 19.079187468077905 19.347430270886534 18.934444011778755 17.481251410397252 15.68416209002828 14.930384650644632 15.314858191020866 16.219281566227806 16.578205025891247 16.948871441736287 17.232865713617514 17.627287496445685 17.670645918114822 17.17885783926561 16.980994896886195 17.10883696802095 16.24791912861752 15.480221183394859 15.95875315581285 16.957980709284737 17.7362316685828 18.091848451876526 17.27168987273718 15.900758302437229 15.285157100063897 16.525404233384304 17.636314555371175 18.177341528633505 19.386410638654656 20.12525748655155 20.694179021764445 20.720121479453198 19.831842952861436 17.818203849019387 16.7993767617236 17.60001157869017 18.51698681626407 18.8206807611616 19.376791046569352 19.799241990901386 19.480611682135866 17.909734577649413 16.06054887640057 15.42536671893725 15.782603552851675 16.494926469093112 17.125083635248025 17.73173546718564 17.568465849640027 16.993757641001302 17.015366965879004 17.348115428464517 17.53480065086519 16.59315974011054 15.294922177623368 15.01287092868075 15.900087568600306 16.687007697875906 17.040437006203252 16.677091510812684 16.806275818202487 17.384694421121807 17.16214000026101 16.450254896393215 16.63816816118043 17.281393647731747 18.428162966767754 18.982173285513415 18.97295684699049 18.467247102291875 17.460372228502305 17.00826290613651 17.54167742612365 18.028139005055724 18.531020898267364 17.922385060963197 16.70732106901647 16.68971657243794 18.310440503978903 19.3484880123655 18.44995281135455 16.785242270493402 16.013314187153256 15.48523847441309 15.304289996795145 16.013576519263765 16.75792898214513 17.269032975794467 17.207070202956757 16.249014062795773 15.888752193310765 16.56683159799976 16.912539221067046 16.60397302355628 16.080905082947712 16.075637859683905 16.487939525709415 17.021308190167804 17.79903614308676 18.230343761222056 17.2015198785593 16.72956316966648 17.673192932640845 19.04499432764063 19.338728966833866 18.76427933936216 17.706841430475862 16.62064517123669 16.3901002662565 16.025085286202334 16.63160827846527 17.317494898301828 17.957928314431918 17.4306487568075 16.55117467163069 16.43209998476518 16.626237498346992 17.676113787056742 18.360448039474544 18.846422254604462 19.002687943885544 20.10782101222012 20.473503352845285 18.956747892824076 17.692281458610328 16.44351328286674 15.54893777961824 16.45627809602948 17.758025292592365 17.874442789430546 16.858010485604666 16.264361589293323 16.26664143919641 16.49179210761754 16.26767016999863 16.072297692867195 16.70516755517083 18.684968928666585 19.460662938609946 18.62310842118661 16.880971144928512 15.17872126734331 14.9793442603452 16.365525649326848 17.502719937098224 17.65508036110047 16.758904802548177 16.652805046741914 17.363448980019104 17.49943921876983 17.641706489726907 17.820699669221536 17.518770187599884 16.727217628316346 16.931709451966793 18.25462110121962 18.686572028473606 18.833785940667376 19.44417207698117 19.05119172930465 16.873022732920493 15.84977246633007 15.579938820378707 15.228064329142434 16.073425591825842 17.09464474072272 17.449054265429933 18.29588407059425 18.695279643806078 18.397529129230623 18.472463433326222 19.366984263764163 20.012924920602334 19.64690225106963 19.04460250842091 19.23705506789335 19.615110104285886 20.12918413735825 20.123608338797556 18.868150428676753 17.411959349178 16.986303954094573 17.52842030474147 17.333768865198945 16.471691610657818 16.136175305448546 17.68963948359285 19.734385858698868 20.752315447584923 20.864569913092744 21.088326728957977 20.94614008802012 20.392112536654142 18.95398829205909 17.854802875599827 18.153617131226135 18.587646592336945 18.085312131740626 17.687357790484167 18.018953714369115 18.58204034589443 19.456424424410102 18.987013910682368 16.721240463775864 14.89099179332535 14.989788321440612 16.09455956353105 16.84691948776951 16.920889247283434 17.293067023820075 17.577317873881054 17.567375186142357 17.361868226444475 16.87686096393135 16.20494791325837 16.06251762049608 15.632172307757646 15.813284370686613 16.61419021241911 17.243332471782388 17.801189867774212 18.045940226229824 17.19419043086038 15.75637887956703 15.418371416975171 16.821688760887707 18.371068739106295 19.21729236726798 19.96690887191577 20.006786419375114 19.90144983377578 19.53344660177646 18.792840677474295 17.332035903879767 17.155610016859605 18.316485498220356 19.008304444503413 19.30734625782932 19.85462937943119 19.358989038253625 18.179977599599013 16.879543976744667 16.340172510698356 16.58270234119687 16.673535494329606 16.97710985662857 17.489328376705906 18.161289750960993 17.897291307875356 17.306726896915286 17.381016271534158 17.77657269719801 17.725386215186187 16.844720678855854 16.022716016254492 16.100463407798458 16.720173589942373 16.76549688124737 16.5163540703191 15.542549569365416 15.51697404049328 16.75140637611655 17.864013481517915 18.152318386704437 18.23675133630373 18.286704288351512 18.588963294618036 18.875213994316393 19.345381132413074 19.086456652432865 18.096131211110336 17.29408690691412 17.537017766419257 18.256902711206937 18.419910385532823 17.363122722820904 15.784674235163118 15.647935500948023 17.452246986202503 18.54771478170468 17.87260040918882 16.548321846676618 15.8989244794001 15.775041315230393 16.102830716507444 16.8436187365615 17.20290102337713 17.77640238791515 17.52213220236145 16.47227227522637 16.14472216685991 16.565170102110166 17.179455502284586 16.75263448262443 16.17148204205043 16.148857084512297 16.34911894274488 16.951026218274066 17.729970397789117 18.126940853382724 17.360689236247584 17.247613475551436 18.23590877231586 18.94182468821498 19.11138496529023 18.898866798986845 17.95862243963604 16.952991282048423 16.448899787684585 15.837540869747755 16.49602304515351 17.264323961416896 17.644010523836734 17.5772141111404 17.33449783317525 17.16311924797143 16.761752013100658 17.15242741846437 17.387493079474737 17.814194734465183 18.3870390670437 19.934812543375266 20.75732601428539 19.768895530365427 18.9361544297472 17.7068050642667 16.524545103229382 17.1958661920468 18.424162448315165 18.136401226397226 16.465052233378877 15.771786415024804 15.897068054009402 16.183357999590534 16.339875934887846 16.110755131337598 16.590379129775666 18.3146187877984 18.67304528583009 18.289956129393868 17.44334885004048 16.32643332000992 15.96731427662659 16.982017878113705 18.02707068180408 18.56477746116853 17.56101045259706 16.805630358279924 16.63849519796086 16.208539726089352 16.422617447223388 17.048293677162576 16.53610774287069 16.062002424643055 17.20197470559488 19.039179729241507 19.933562437903266 19.875440341603394 19.669383072227298 18.714770728737257 16.658751539603877 15.84320051617067 15.530162487908987 14.962350055628004 15.828849225504989 16.83004023506366 16.918888823975774 17.63831273866846 18.049845031636735 17.45196982665835 17.02669478349745 17.876816512319337 18.75365499395053 18.431055751280702 17.541829363787556 17.947875760139016 19.16343488648332 20.49620165232937 21.034536336981404 19.892570387974565 18.564203200010553 17.91039561207089 17.808113825337188 16.919695770276125 16.37037020456643 16.65971344527178 18.117694163930867 19.490958036698714 20.200241042016234 20.37015620841846 20.0277640705589 19.170495894794005 18.350344566651504 17.01738611626531 16.357816147099438 17.454911302315057 18.537905084322574 17.87081238563727 17.771113367623645 18.249405368241444 18.6289056850511 19.08325221707309 18.501308384656888 16.483781644431954 14.880625434714586 15.189747783694296 16.116410411590078 16.713801594312102 16.796023124189688 16.844629366601744 16.671841383095938 16.560530550735933 16.744669642830882 16.383111727481076 15.150398654387828 14.782734496062927 14.920204444972853 15.628821341232545 16.467308025211683 16.458571007740257 16.488056095666487 16.731980364242684 16.449811498419646 15.626909186454535 15.851545726241053 17.297753687894716 18.956162656008363 19.46948072167194 19.43074466869889 18.93603364129041 18.65160096737081 18.236085077764788 17.92624672790981 17.38696436634295 17.611963093135415 18.3754723308845 18.51102761756761 18.514143232246536 18.60558131451697 17.279038752215886 16.090585485517558 16.037866199568693 16.81818398569575 17.000368785437853 16.460679333573868 16.54831232525883 17.20210140003848 17.891523869638217 17.58526563465352 16.85523168354358 16.869190661527952 17.24774418806427 17.2106522618049 16.564750945400018 16.27192978925782 17.290351878135393 17.96646774518037 17.426236189052965 16.455571013668443 14.691146946564018 14.032335460345816 15.168560473111093 16.943696518330093 17.989912955827897 17.992167324346546 18.079792226153476 18.597098963886936 19.27114924706674 20.25363409762147 20.15227223124962 19.199624208550013 18.500564063283022 18.470764213138814 18.913065717431074 18.920269124000676 17.718156546590837 15.55719373286566 14.56281626038948 15.927237808194795 17.340173869007064 17.7318904980667 17.420364686545845 16.85797138430771 16.808289704770065 17.22973728790267 17.457663431954966 17.28600005800485 17.73283961925311 17.607380689093986 17.253143874319246 17.073366200551607 16.670179414054175 16.683934542113526 16.271006689441098 16.091980142089255 15.849990978667371 15.714695268591822 16.336244209885276 17.643897410220497 18.31350907280642 17.942899713842177 17.897769056850805 18.40273564184185 18.168207210711202 17.607275248489756 17.455992471807992 16.827850632711908 16.538212643727377 16.76170889925688 16.46372694775014 16.807176762617285 17.329252639983356 17.608191124593926 17.79555526676443 17.58981625423619 16.980427811515007 16.451097450899674 16.66775317047352 16.849327827776133 17.461310176243842 18.41941173654094 19.703985038726966 20.1613957586316 19.473811139816835 18.96173925824396 17.778841015202868 16.893472264919474 17.373012089400756 18.22583041037345 17.884105755707477 16.63563157173742 16.27128907098434 16.241217518791885 16.23844579776812 16.519229825715176 15.869872566515534 15.636488167263863 16.674598410285366 16.90046411848827 17.343105148188087 17.367159477182753 16.774328528280662 16.48199521817343 17.369675389994757 18.66336661004319 19.737275284861344 18.890895834639615 17.16714913842288 15.881378503561711 14.690213772836723 15.134162392554773 16.466532326355114 16.232604113682