# vtk DataFile Version 2.0
Ocean Simulation Step
ASCII
DATASET STRUCTURED_POINTS
DIMENSIONS 200 200 1
ORIGIN 0 0 0
SPACING 1 1 1
POINT_DATA 40000
SCALARS Temperature float 1
LOOKUP_TABLE default
11.19483398463559 11.609821214172978 12.890772550771175 15.730543110070334 12.83043712207513 13.745548928806942 11.934665443172031 15.555277660641186 21.945880881865335 18.52799824877389 14.929408567458792 13.19719851477448 16.33635707696345 19.683658197688768 18.24306336277306 21.897643209411882 18.996927374470708 16.59485516083126 20.305555689248383 23.350185345163858 18.454286088463235 14.77933360119105 10.491713190127646 11.160283216502362 12.566820098424646 13.261961574433464 16.297637989293968 12.11381464601285 17.868219563732925 23.85508879680033 21.877076902627373 18.862900629598812 20.146095233508955 23.419095464669844 22.601578014734574 17.629643849289415 14.564583184867072 20.614193500878752 14.889770452546273 19.59137549194753 18.795598315146247 21.810541500610352 21.6824193897178 17.14617027698555 20.146122873701522 23.527915116721335 19.385698833616885 14.298307917973913 17.145480987038532 13.356907108682675 16.49786933680572 15.90749688080991 17.844892128318673 20.96910851964905 22.079782291367966 23.677241397863686 16.417581222256523 11.900724229647242 14.4037776212847 10.968473688478769 13.119019684542227 23.042159680740347 23.72979692128404 24.521875434347315 21.465732072678804 17.43304422609966 23.064297849547476 19.77918607670322 16.248673837084056 13.592553501756505 15.605402184735397 20.775653921765922 22.423397837418896 22.925451150592036 20.385397889431058 18.490791465437994 19.770153883366998 17.39625479947765 13.59139465317582 18.296204627022007 16.506347403869135 12.407836500267983 13.915981750068555 19.544692420607387 19.085323863110553 12.536056662283404 10.627976563674594 19.828520983625737 15.806967636011425 14.387321306131257 19.199284602169055 14.20364081838327 11.35755313574238 10.089543303762222 13.105361113127465 11.454821430293855 12.446791995063545 10.817257746416587 15.1165875437814 16.484698927111133 14.376239703160833 21.15947807414632 17.94279500189152 16.53797112999666 12.318648203739935 11.372714905119677 14.222675965198276 16.65269189140549 16.03691264939154 21.731817159134188 21.440565605029587 12.661925730384716 17.7584522659541 17.359183837431583 11.949515523122448 18.61872680038642 12.260326645928098 12.74987470653328 16.44450534795606 14.00684198313645 17.753691522069694 14.01121220087386 13.466901027541324 17.844041951603373 20.98233763840927 14.290346577109013 18.11675462430031 13.243202657063739 17.388843311433988 20.794612927278735 20.46613295167339 18.894507174536763 16.235556544714782 19.464496638119776 24.826216181458264 22.460808275002456 19.311276603433537 21.052610498711584 19.4319263712096 16.972874374786425 13.09137459260084 14.446975014955997 17.94943439258937 22.263941244477703 18.670873641092896 11.98823694626633 18.711133321586384 21.91323209487413 18.59941634202381 14.614353425475757 22.933107797337588 22.230052159308286 23.055665109037086 15.76835045607655 15.709774153802018 16.24098110637951 18.677501553117878 15.82596694199377 15.882487214262067 12.812156844459922 13.80840673333463 15.807774582761589 12.312054280395756 18.744169553419997 22.73278712131917 19.801378180630113 17.037261063937493 14.422574902378756 17.586595105912707 16.64381284887269 22.460075720612732 20.86686447471628 18.86258842649362 19.097323023104963 23.127175870919846 19.3485664971768 20.65816741364877 15.63614370796817 13.405954521591118 21.268985194769588 20.563388372069525 23.895945533324433 14.54654832555714 12.148967055118511 13.64794444793589 20.462925321545303 20.308695590797573 22.455352711694058 19.612000346114456 16.99905217892379 13.009759618170865 12.790428492015689 18.14493017193196 15.069971683124043 17.485914578405964 13.600616489853486 20.4721611861195 18.74341900351712 19.510891011773257 18.58278950784056 11.92238451853541 10.620273511389406 16.781743950974025 20.787180287599686 18.86008489107122 20.704725908472245 16.38301670863074 16.28558596247206 19.905246462613306 14.002816079953424 14.831273422055093 14.323926959075989 17.43118863111485 18.003381525485917 13.879438734474196 23.032078769553358 22.096514543483735 19.035861580695098 18.18176691276201 24.938256746327607 23.889431570685037 15.788468386907653 13.951113810030067 13.320067916727085 12.342024486226345 16.97634744189844 16.039568156345645 13.338619309767257 14.01421956484202 15.551822575846575 17.213257264726675 15.891255620820825 22.251935379549597 24.503964416779493 22.318537592123857 22.34044614907076 14.428962427805578 22.377012206513147 19.307713097675418 22.642668766789132 18.51602522612135 21.102089067362325 24.747067303997607 23.25523314761905 22.296880542904145 20.11381029397971 13.244981153278 15.458748561986901 18.78965626945255 16.768375650132324 19.823327684955057 22.92916080062618 22.20320276479685 24.27947117463355 16.59771834606025 19.20907168292138 18.247298335312745 17.165674883831052 16.600469373088977 15.252024442785393 17.96853324829576 23.63073266053018 21.949856566803916 17.688789290109057 13.898816155722512 12.234107940971136 15.920013967878145 12.783274770451671 12.991443229557314 12.300340369006937 16.937906193144116 23.69598359884985 20.56874005343065 22.894260547339236 23.30508914016399 22.317571939163532 23.596165916272888 21.154180285134675 22.592013614661834 22.345660545025698 21.44486962008077 17.368963021994283 16.850367510162265 16.20843260809387 15.68107577307783 11.586865870835778 11.583620813099387 15.72441108749798 13.47718204861847 16.510848905448718 16.97699819191949 18.88991614864545 13.677985155625098 12.218069147989167 19.452304213695562 19.035448642973385 19.524256922444746 12.098517679402095 16.162403715362096 11.799593958554583 14.826563595857479 21.46366593225259 17.26275688166662 14.863960545355312 11.763549501615463 13.010793123839512 14.911919477233166 23.523443764194553 21.81655745892423 19.938452104526565 23.00834743305857 18.149519678955155 19.93106077928232 15.06428065129735 11.51598779289563 19.151189486479165 13.414605816395701 14.875587133646093 13.90383097629932 17.06421327213835 16.56247239601894 11.66049236270576 9.26793264194441 11.423912797217618 22.043002070308926 20.92533477481714 21.733286315160928 13.587926668968384 12.476356124676547 18.74314060614661 13.790879611217044 13.553470077411696 14.628836967189468 13.772704161726983 20.565482562505004 19.117044281172145 22.134778072106183 15.559305926486712 12.25728880501797 10.256760430218128 13.727003951654583 18.417106599371973 23.647734686025448 21.822919758178653 15.353964580147132 14.414968522120663 23.534854984110602 21.180092508914324 16.337584427792493 15.72293315927783 22.16441546819867 20.127774993913267 22.605761905870754 14.356196492906136 12.812577631946187 16.453340891536445 20.225288102832973 21.099848821976323 16.416913081578723 20.38994985360399 21.48972119513829 16.127266097649123 13.404674534248095 14.627061499008708 17.907137950484536 19.77971543954457 14.398364446873746 12.121192839066536 13.18487324250687 14.762379423868268 22.52325105488956 18.91173723418073 17.776651816696507 21.269762262983793 21.559039724723018 14.50510929652697 18.35038874206111 21.585738100758974 21.76671540087195 20.877563250882886 21.227899735767867 22.9534881912242 21.982827707655634 19.127135508614032 16.798356582276746 14.321180656359292 10.763825724284782 13.958543802638875 14.257008024119756 14.79167702805059 13.972398400165268 13.081186934016701 18.52499383983228 16.706878769302996 19.2736552128099 17.80405543558816 16.997480818511033 13.260172602196993 18.62401570667664 18.193820550993962 20.46943735742734 15.48436670719239 17.39061311344829 19.59493637051944 17.054973165881353 21.062370072502077 13.939232143232353 19.479951830860017 22.4788854057383 19.214896901238507 14.574141692561092 16.698211665399725 17.452274915896112 13.590911504775148 11.977369391691454 16.92895277111977 14.536111432471284 17.89703532247756 18.978500835068402 21.731836230505756 22.004075775851376 17.071435381634917 15.021257576529736 11.625729106637165 15.067046416514803 17.457358776890676 14.345654031032744 16.844203708697783 12.064737301042832 11.575028834613178 14.01679884487761 15.314419642539102 16.903672450931754 22.60653533130389 24.72160538005881 24.936552510080894 17.465832977548615 20.17440339159554 23.955070087274613 23.07772713101354 21.3642734411967 16.185998967729663 19.05294103746803 20.40219110851373 18.371197347526316 18.89485429484468 15.188617747898915 12.231207407832189 17.910580441320334 18.120659440174894 14.02072591754313 17.40814775861007 18.576932409500056 22.78673999289729 17.70653030652126 18.025013306797508 18.097305250009065 15.801508109289454 14.420793591908936 13.864294592014986 13.914632186617972 14.031978472563248 17.652909617984342 13.495092243326296 15.360541077917643 19.244235792206343 22.40508398040408 15.429554823932376 18.23637100079876 16.5220788295387 13.057743234032253 21.97065367569983 17.76002678872491 15.81062551068192 18.006124851344588 20.593123241950735 23.341902111161897 22.951752978530276 22.844639135726087 20.02069423276585 21.536888254438534 17.966667313695034 21.16921724610841 16.11155488446978 13.158294996194211 12.053794269980552 16.70274991339733 17.303427581162545 18.184852197069937 21.813108838900565 16.382282345587644 20.342299504415198 18.244076285022235 14.860375310057462 21.1034789039105 16.071583989506653 19.229506719903007 12.686959915395148 16.614901380819287 11.03041646773981 13.326478261800725 15.260547994330917 14.70554095217681 19.10940833197875 17.609040631202646 20.58816970602468 19.736666046214904 24.66045500332656 21.113149249767027 16.250171033125337 21.904319671983583 22.226276593832687 22.347890073647534 19.07626674733729 11.488797557301703 13.20150252325494 21.583765537428654 19.771854884335443 19.158647457775203 20.52706927475508 16.49608457882907 18.67756877515126 10.747112096452486 11.282166812635893 17.04172935660994 22.424246394578248 18.568206293961104 17.796156740482054 16.727449648897924 17.28468465395546 16.244744403301535 14.724828957991514 17.065554224671196 11.643906667436678 15.376388196739375 14.52195562179841 18.044373238325505 12.713279804163811 10.260524672476429 11.006509555797546 21.874568942361428 21.552986273981023 22.201878133061335 17.27951451241987 15.797256179794333 21.118557514528813 23.508015646269435 18.650191408904476 18.77959984752263 19.987871242706575 14.729923737793728 15.7618804854665 17.268095666810783 12.873356300356908 17.50296854235807 13.840291732512107 14.673608296968174 21.95917147846903 21.934175986694516 18.475129676445547 20.109157599491205 20.86510169146222 21.94419612813737 19.023539910798018 20.26699615523816 18.475114206976784 20.729429229728023 12.584552362724505 16.599675667788205 20.50680829442781 22.901692139686922 16.892082693297258 12.849590347463854 15.749495423680818 10.856377546091098 8.632667006274954 11.69039876669447 14.376180179446568 15.535288376900606 14.771988314865368 11.76939525314015 12.96287853046676 17.34843882553724 18.434326993820026 18.70495674330471 20.749378465109082 11.91556888711667 16.642726808202983 17.657083269098777 21.475388443915755 20.24542254331165 16.953460383968526 19.121246920244285 14.56127233444155 14.735424527302644 15.396858426998936 14.355728439192097 12.146653187407395 17.90325749475596 15.521065848960529 18.900817412178295 14.624330729985113 17.759903340191208 19.735867749878917 20.067244780156937 15.797763327932845 9.556502319247446 12.868610134491453 20.348561151825265 16.984335676517812 21.401078070356675 22.42349399963984 22.002831854075474 15.965146760148084 12.729916829568296 12.514632986850831 14.393106423259201 14.406800994162879 18.641976871515855 20.216742730949104 21.580844020731174 20.161094558806155 13.25155930888132 11.383835864343917 14.918196359197594 22.54144281102869 19.649121130295075 15.456216226374574 14.235515887002204 12.4284770359605 19.11832098297197 15.359579430868001 18.500348897470353 24.13120272332412 23.056776827379213 24.172943280791397 20.344187489978435 22.36723865234214 20.530017438398158 15.757172334680932 17.44410817261285 18.542563303322012 14.404664394893627 17.86276215746285 19.311912654553883 20.863379773521704 19.179182017430236 14.08258132809696 13.515271568576289 22.714154342715926 20.25203408775086 21.993332985633767 17.513411346599693 15.387331440071083 13.125464486869092 17.527819598664845 15.519449853437896 18.531207513364972 14.969257120113223 10.886188104625203 10.268499776283042 11.29283662632978 16.37006993700651 11.45206072060482 12.409793930029009 15.228060616233995 20.592729467145766 18.601652385131775 14.91312086631269 18.004923841848534 13.924355224869077 21.10366110991945 18.141194971655676 14.400773141493934 19.530034986474828 18.403064925484475 17.464095423477215 17.6294748756666 14.756295789055434 15.481915632561561 14.212018897228548 17.030891670803165 19.18086964876696 16.776233661619973 15.342063347183702 18.696216937890057 23.21721886715009 17.44594763846306 15.091601718227784 17.426770876648625 13.749462725235457 17.582405102538306 20.644056798416006 21.19776743218273 15.822139707226235 11.801288630956284 12.72092368152185 14.243079264144797 20.043811307515636 16.09823446664651 17.601225160490586 14.938288644718947 12.809620263206817 13.869709469735191 19.51046744259144 18.30676474664404 18.425603319690328 23.279692808390926 19.660730699590644 12.614442566158544 19.87924544917305 13.417208949629964 14.431007343719386 18.318749688676967 15.018264389648978 16.712323733986572 20.311786724269908 13.457575046074211 18.47985775271651 18.17230930807589 18.642077163639264 14.450150788567505 11.229841548915855 17.590494905733454 22.075155519012004 23.852203318468916 22.738997566188846 20.10669487351917 20.241902317638946 19.235493761809526 20.926362311961622 22.230368426006198 21.585108365414133 16.432929917143007 20.09744309474357 21.988683244231826 16.48517646362243 20.20695695039243 13.367535736193533 15.755484225160524 22.075597137743316 18.5962563693665 17.73579503070263 15.247258229381389 17.589957543071677 22.690221315460526 17.35665389018381 18.1516053165077 16.802187139610762 21.74120025134054 13.8406220532943 14.114071835302594 20.16779523469691 15.332874949965023 18.646944075534616 16.36658764330674 18.302871561204284 22.367588334095345 22.326571820906533 13.890785308315156 13.287745052203457 13.927690059769763 21.72258432795309 23.418193344095577 19.709411726588154 23.095309237912517 20.113520022869267 15.989038314596346 17.765154853994957 21.978337809423916 22.391542730740188 13.714047039567761 14.132759803418228 14.853113404895327 10.918408792588403 10.553079753703896 16.20153812126754 21.126036234276548 16.385396942245976 19.928848726133985 12.599994251658105 13.95446393917835 17.575099384356548 17.773567850693304 22.34429109192046 21.642388655486997 12.190428719197987 11.705343051482377 11.86947736116334 16.06594583068524 22.813757078982356 23.859466431837095 22.683661928301177 13.749427749717633 13.276432548372334 16.498842857154933 18.8504970226039 16.002719426561764 17.93747969620175 17.669872867481814 14.154344678082762 13.39729711166029 13.645194325039368 12.422217787919196 21.152509551339573 21.473289650497435 11.799001019048967 10.723645305265125 14.74257106889992 14.586635387575482 16.394554607586148 16.04688851120275 16.135948562757083 18.440769970777062 19.686256909079887 17.701289729562706 17.212656095530036 21.6874536115386 20.743409674515192 15.212502018809104 14.639614545612416 14.574714664391369 16.452465536891605 16.632993203637124 17.28650534568513 23.20576839188777 14.52567308761592 12.615211679923354 11.699629584294716 15.670517055995308 19.479855235428552 12.471925130504061 11.993355247785837 22.08700069730725 24.90437565274295 23.75830889509342 20.392780695758763 24.12898984412077 24.86876983832836 23.292355942946067 22.216555993647052 19.32241832848593 15.349062552258058 14.866358622065787 13.7734540629043 14.569823802628568 20.254152776246062 16.71634503682832 17.812842773173564 23.518992503943622 18.65084530410401 14.222501903072407 11.930094367293231 18.165503094457726 12.812382857159587 15.039379738122479 15.775068680107044 17.170949850685147 20.447966647989062 14.978902524380183 16.730802173356803 19.03072379995155 19.348249854042635 14.478002527529608 16.609015600287574 15.281186433304649 14.236072831096344 19.38772857825077 15.495986551688496 12.873367035629485 9.983071334813337 14.627589272471347 16.36499784479294 12.243107348879231 15.787915755431321 14.813632102263432 20.980822371073682 23.163355305194376 22.761008630812366 20.44187484125227 13.886459446107981 16.00082341016582 20.324317086252094 18.65250351815503 15.971478652498272 16.589753701987068 23.026819330857908 21.236217933073515 13.935560092974246 11.648364444052065 16.887946028761352 18.63078534527664 16.011559319187246 16.41084401828241 20.17855190757051 18.491776089105368 19.136309309696998 16.252907950689483 20.640634028968517 19.504011631455988 12.957086763394857 11.469848692052619 18.110930118293435 18.30893235028384 20.345422228097608 19.2644167174992 13.505165655493453 14.958821541339155 13.156428467231823 10.870026626374148 12.317103306245523 11.838485556050076 20.435707072121847 17.549950128268765 15.519406246931059 19.398297678015602 16.56855798807493 14.307320399353777 21.22613499361034 16.51763720326696 21.280261992745462 16.913077399671153 12.211299288709883 13.232597085128857 21.935607912177673 21.93351566848829 21.54969428178047 16.7703585749587 18.462659002759697 15.849189889904515 13.264276211624184 15.293268877339917 18.399333449746372 15.095184864369315 19.969224105166795 20.2205789146712 15.590118524481593 18.674323149374274 14.111679458485378 16.982266793196928 14.94091151237977 13.908521403359064 16.458582508237374 18.47955807012655 21.50211764494206 20.90503985970726 17.220031424042052 16.564512003719656 16.830611381709087 22.165172398437683 20.0987507043038 19.22467950380454 21.114842148951247 13.418601595275893 19.254469859108152 16.50724718854188 14.509052564961367 12.72003250399251 18.867106195258973 14.492841468784881 10.862522157982497 15.119020376370164 16.452226956361795 23.17983083573283 21.534514474434484 22.722452046272103 16.330096044998967 20.455216251294395 22.3065575941592 16.66866505616022 13.973397225620065 12.735507511037621 11.817868502442467 14.41772308856733 14.823573895268577 15.675905181895184 19.61711547302254 18.669050218551735 16.982371927186556 22.098207375112775 20.225959742539338 15.589341577825856 14.72397325246498 19.387985116602433 23.241393179255716 22.77925614457106 15.923156429650557 11.047175852816057 12.663160350871696 14.47455632021069 21.344510460087097 17.7729330842839 15.740742152426577 12.720077109013852 19.560562384111304 16.069437108231558 19.713055735463374 17.653772412544914 20.39427120294354 21.307896429666933 12.842809114642328 18.301160228438803 12.676067030561034 11.610877482052382 16.573619280564447 23.006436118773447 14.713945719566972 14.187045687738594 17.4330822695793 16.518230178009997 18.46934166175277 21.299497200727092 19.69676663875755 18.84404537924631 20.387879715678874 21.6138056796205 22.91487519488298 23.73748047780147 22.952794111747032 21.601123630577824 22.678063052922653 22.484505317479307 22.305395796201672 18.058060641642186 19.78871569871252 22.114727776780803 17.5054579838636 17.776612057612024 17.796512521145363 19.101182479537744 13.90013391259479 13.452329262581792 14.123409508128985 23.326532944644477 25.102788126856247 21.10923703805966 21.155855884098102 19.07878178040935 21.347634949541444 22.058046191907906 16.673693134504063 19.430925464847718 16.043415672916357 20.433482626540933 19.892515674526187 22.04572353703925 21.95952390091428 21.058935648918805 20.213776643894434 17.0345169418844 12.969989360933589 12.164165462953388 11.596495836102763 16.14030045258764 19.130354889354788 18.307495675829756 14.817099987517254 18.016842410201907 20.090160963992464 18.40514898135316 18.044288143660854 22.344715836676624 16.012790946657773 11.7075785081479 13.554240778145745 19.127148745472077 17.367963852893148 19.3842940892623 19.115330486038175 18.608521144290236 13.236575763066977 18.46379015687369 20.26547981862181 15.755168841722842 23.144723024456468 22.43490847674557 23.436730982469477 22.528523924066864 23.746697294684136 16.27775432660689 13.7063362368805 16.67276037555865 18.592778012878796 17.251470523772724 19.612972047918415 22.697034913967187 21.485474824454748 20.514594527670546 14.50560167999756 11.36297611022466 13.426700232823082 14.54516417201411 15.722863399180044 18.364572049471857 16.96608392874721 13.940906330484685 15.878261191824512 15.937417758707275 17.7333777870856 15.938912296920272 12.060262051420116 12.919693060565885 14.795943470295772 17.199404136805278 16.940736203504613 14.810866287493441 19.616618997878472 20.680502974216854 18.021551805812415 12.894541208154745 15.868441758706105 16.306929341113186 20.459879559353734 22.67936330276062 21.925526108188095 20.08251909712609 14.439850763671256 17.12980129104247 19.436127697979742 14.591446929113388 20.81314380919049 22.62985915892776 21.067839457508057 16.91792797381031 16.109382930235675 21.58540262965696 17.973115036202984 13.16038432066334 15.643404858324827 14.407982590812932 11.662583901988581 13.288680097161047 15.763305715920948 16.880558846711036 17.05679024705884 11.972542607317026 11.869524016109049 18.714420458422783 17.995065959134966 17.27347091281223 14.62193406499154 14.57970514577141 17.49995399884338 14.27408685298949 15.32990637447833 21.029350027753203 14.972015513680592 13.053184512937879 14.0491215355563 21.127462451508315 21.02392680202525 17.936084843430773 14.932166182397852 13.79652491630935 17.456869049979257 13.362132394010816 19.75827776513088 15.497910369789352 22.120137792133743 20.91936761487586 15.741902625877879 16.41425074074608 11.661157255137487 15.805937184845124 16.76375913719152 20.675929898087745 17.656380892502533 23.15762785214195 24.80917205094026 14.734534479586554 16.99673397611839 17.23258157229139 12.471709480287275 17.474720428348697 22.010715106486494 22.625155215815212 16.126894776016638 14.615806500072862 15.3968312060154 15.112613956481438 13.296368938882756 16.594759786736386 12.579908931819427 20.652431861623473 20.818012223658567 16.55397823774945 18.30335969021395 12.372167136764515 12.081665049713001 18.400433924096813 15.324992441965884 16.955538077332964 12.811131927207546 16.930050880415056 21.202385526956675 19.60279482835638 18.462155791552636 18.00290078005501 20.044600324779697 15.3493800432385 19.20216271255337 21.716833409721968 21.154573784625377 20.124668420218853 22.469013237009097 23.6720399232175 15.453861358481193 17.552365119148867 16.36495707872677 12.123067920987646 14.685552615088733 17.387800996360195 13.844291312992102 19.67597041246027 19.72485399902248 16.7114729577587 17.61966053857584 19.00269349183021 22.30763118480327 21.227437371699594 18.437831971551116 21.745469463496825 17.391589951732463 21.36435436311028 21.506951604655484 15.712186496574645 14.312743088465584 13.785539628157672 19.810159291807746 20.42968222055192 17.74922249971338 12.4397030233064 19.611751888755798 19.467419519754884 20.076055190461318 16.820076668207797 23.656656949280883 23.67108137558754 24.038525378062143 18.546454122142883 17.22025550406955 18.293235366947634 21.519609406915485 19.353256551507382 14.450916476452042 17.511957570957506 14.261463215025012 23.286076651529076 23.79355476862696 13.4619455242863 11.961908612471873 13.997559281710322 20.17018201330666 18.71823733575982 14.560121741010077 17.816477526606924 21.941504301918293 19.97484713504923 15.213518163085652 16.81087798316411 15.201757671903522 18.50158600477498 14.003338085154132 17.158165475513496 18.706446777588837 18.66253895071087 21.235406361377017 21.92377889772373 18.085323179114248 13.321943614969449 11.925400558688233 17.504398462869744 18.017761714632368 20.748308816866587 22.800293370180434 21.201738412758356 19.408753303557983 19.280931793483994 21.043988201746455 13.815274849704085 15.019999483868546 22.23325845770429 22.048163164764112 19.39756638250402 24.12576008915886 22.982800321523158 20.530308668355296 13.292810232469465 12.580820156027558 20.677242360090244 18.746707942441297 18.81426575820043 17.774597797876513 20.75097578839598 18.72026944299075 18.881481721327297 18.526774329494902 20.909534729929774 20.834008147542328 17.93025394893197 19.006673223629335 14.144390510196132 17.947446928942647 14.943368590621983 18.912646756762527 14.261352938992564 12.89113659622541 18.959208327418718 22.922975093642453 20.607734981107946 21.976296282814488 20.23107401885791 19.092614182885104 16.355667083075524 18.325528490185704 18.114233828288295 18.520986679255593 13.486261015583633 13.898452324816253 19.915684377933335 17.65932461255301 15.235799811138921 11.728381973371041 12.584670398415238 21.338804878164726 21.882097423609107 19.21011415045319 13.373026904853516 14.400489674061207 15.399094947880977 14.060105206489348 20.098107372578458 16.595006149740268 21.517721977569742 20.733670458573428 13.037508539939097 14.259970355806836 14.112369094467132 21.150145743327737 18.219586167123204 13.471645997187988 17.989518780868135 15.20002768584 19.94693421749292 16.23418596614559 20.48676687861127 15.305716500081877 16.141131564758176 21.394144043941395 18.29545904734071 21.940476804969503 22.93047010839117 21.865165008955255 17.51331151786238 17.130908398862665 11.776339443479475 17.139143945085813 18.87384552853029 17.11293418024524 17.084229242148183 17.36078998123131 21.15551396476635 16.33953760543197 19.274816164453927 16.095669273384264 16.37729873935587 13.94233719127116 19.0492164184197 24.990396318865724 20.68716339590329 20.984092489352427 21.152453252813913 13.62525852623147 16.4476551830458 20.364619898271485 20.126952765390154 12.025556302988653 12.809328745458036 14.23344927236352 17.136378113016153 17.232115216833513 15.880418686215567 15.696345624163564 24.035029345247324 20.834613459144347 20.29503800515589 18.196182520938454 18.110091330596855 14.224448255875307 17.278244126814705 18.020845139040752 22.513851400258517 14.557894683782445 16.455551829217107 17.273773980353152 16.50025342372032 15.429335000485679 20.508567757460494 14.395904960896925 13.81622702443879 15.407466210934244 19.534666641484094 22.417211045463223 19.117667291204583 19.292417528148423 20.821212164875533 12.417036043518067 13.405157881715523 16.84579283637794 10.877038944445456 15.795900621297728 18.26157726439418 15.67063772441813 21.054978504296102 19.837397345223813 16.84933471781882 12.826819407457243 18.16876603732334 18.44036633777354 17.357809203519846 13.411755160351477 16.858060354978303 21.987338878593015 24.208405675617932 25.336499364895378 18.434904991764917 16.912762597542525 14.979787773212898 20.73500401010084 15.76657326177436 16.020536302836533 13.884002412183722 17.376757215524712 21.75840163646985 22.027686999798252 22.51623932322923 21.716809211409043 18.84080048980922 20.08756310596285 16.01568237405807 12.107995585748874 16.867735186113034 22.430649858835107 14.15160360327355 17.056769980257666 16.061167934902887 14.928235946145314 18.702965874967887 21.318916639185403 16.277941211789305 11.095509694945706 15.401287195227358 18.45007099778578 20.316744736121993 15.042509574436632 17.591711796056995 16.429370091224182 14.736359207191867 19.086701193731912 18.538402366533145 11.50707708578219 11.247084531729927 12.11975225653106 15.864183950882383 18.515233864817798 12.969689644486872 13.712223800104178 16.597847344135758 19.143552276386483 13.704108581167413 15.522463169495111 14.794003495377389 21.134607110855 18.11184737798033 19.27612161557703 16.611063347701585 20.07681608401544 16.26662555731507 17.105615520894997 14.141025875587774 18.234162259537843 19.133266405898258 15.537603397856902 16.700910766340826 22.302257740585087 13.835180244689958 13.058460690335252 15.931081319691938 19.119033675399173 20.532247212305727 15.733350483263884 17.56855527515099 14.812330594585129 21.469822885648863 18.214218152855295 14.281723408331187 16.014141908705646 16.573909617878826 15.387295827908737 13.89969614315522 12.34074498585441 18.51829668482083 20.28216008320413 14.97587152573996 16.71065386809639 12.046420243555938 12.03994484498735 11.917844716269219 15.806064496065863 20.012400923904828 19.0674422431268 17.651810672493536 16.419204258143743 15.058505114871888 22.861386354445287 22.004014101563623 22.006130013448562 17.8951843729516 17.957568282083585 22.60219457624293 21.493077385510066 17.83543378944107 12.116323418710364 10.386198309666037 18.927722681446884 17.446703999315524 14.715469954034553 17.991385153594102 16.674776055954947 15.910043018380465 20.01967415823959 20.90675402872882 13.943412443274106 16.56639101188517 17.82457920336173 19.700932230528693 21.431232977528563 15.14122561881573 20.490009418673875 14.319773083426778 18.388819599767853 17.453354585516244 15.674875390440551 15.92613772811089 20.574406133225462 18.522908165384916 17.26822747377968 16.32366312438868 21.27976785143955 19.58806038393744 14.060951631631216 18.14681648837183 14.927381521317955 16.835607353190778 18.391524795790566 12.677294365167256 14.131678873169042 19.07685710251004 13.96230333701908 15.078732041614517 17.790871862134598 18.46491630414357 14.88262723975913 18.07606069959018 16.219281380439547 20.633663804259733 18.223419694893778 21.501939474618286 22.84228343510497 16.85353520518949 22.31041752780614 19.153162505807273 14.52226367967603 16.826564141561036 22.083112721697297 22.11645822973521 14.98749249200489 18.726821260175125 20.106484883976957 13.637462748029824 19.42948450138549 14.688672865592224 13.130905128385905 20.118489125580044 12.602461240732051 15.767268045748985 18.52577698255862 16.799737230701822 16.53340907789291 20.411826353681825 16.418287227864127 23.577643300707507 21.020519327031046 14.79300590388124 14.650269591528996 10.196408888540232 11.737