# vtk DataFile Version 2.0
Ocean Simulation Step
ASCII
DATASET STRUCTURED_POINTS
DIMENSIONS 200 200 1
ORIGIN 0 0 0
SPACING 1 1 1
POINT_DATA 40000
SCALARS Temperature float 1
LOOKUP_TABLE default
9.838264881368382 11.495791077010663 12.327302525550575 15.783818865944431 11.427638830264438 12.941869946071472 10.839824425213694 15.509762865230634 23.540798084881875 19.477129057721356 14.745745995764434 12.419772065002398 16.083483751449496 20.356732145505603 18.086324762459185 23.142305457449083 19.088622689795017 15.129961639308277 20.362359949498774 24.799843472671757 17.516671258086088 14.65120801407202 9.090412281193785 10.388296203938971 12.142742874171315 12.595746436627454 17.774429665709157 10.867770308941855 17.945089459659865 25.59364308149026 22.646161322522108 19.314184641590277 20.277584670857568 24.928440252979097 23.73577370772904 17.386092887707356 13.602607993694106 21.52147956299963 12.775073663719644 20.081112390156118 18.208880395347514 22.1112297568124 22.554711187781347 16.174909934343464 19.742880493068007 24.588557752871484 20.211936652759384 12.98966706048298 18.017971995179686 11.941472897013448 16.24349725124474 14.348076712666618 17.722234006817512 21.607276046927534 23.01688726302788 24.977504998090385 15.137613144476665 10.143057461274411 14.624942718906745 9.53601514181645 11.948392268521406 24.47633263191911 24.34323217459785 26.068089114611055 22.87631663286403 16.700072389269543 24.815411719732378 20.915826968746998 16.885121986057978 13.28972713031523 15.734543527982725 21.52053221738008 23.042109041031654 24.125474566222437 20.76742051203214 18.503768336248292 20.590016404633893 16.779576004407918 11.457549465115605 18.420004039838076 16.6766838350788 11.060482627268057 13.164679706479882 20.96434003221178 19.930783753056964 11.940273463821784 9.33543707482121 22.47938527507121 15.200574724697365 12.661147085684911 20.771226024519603 13.068607591864318 10.43590144903752 9.034777974012078 12.667950958163374 10.34790159116931 12.256003363889667 10.085471710648545 14.818101774988007 17.122730170516277 12.69436470193047 22.90428372809817 17.911366066627533 17.142195504050196 11.987863463884487 10.53113144991601 13.376063865468213 15.758414035920305 14.323565524734601 23.514062140950596 22.499407200501608 10.666099436034541 17.984892815970593 17.920210229519803 10.2115247136993 19.678979784935642 10.792758007731306 11.669365885086867 17.581793987284104 12.379556065145028 19.417385605121336 14.324503997921633 12.962943095845066 18.364207421543394 22.1538765065829 12.371562519923344 19.393600356491223 11.368003252665996 17.782863872303217 21.758060343362157 21.237163887363725 20.284773349405732 15.754818734137991 20.233420357096005 26.37106589364428 23.249820645288892 18.555501675496938 22.450458261746416 20.829886400689535 18.234410840579834 12.106302104570696 13.793464952716322 16.569127635410734 24.04020850192667 19.550502587748888 10.02198610367811 18.440622550811916 23.465110880978933 18.502349164417843 12.301829817173674 24.644040291536708 22.52665348060611 23.79061227207901 14.745405967670887 16.25252445258234 15.59513951072231 19.259629564065545 14.381964097973812 16.27131053662602 11.219467693880205 12.844222295391502 16.11521523059488 10.318314612782629 18.951924310240805 24.413696530142577 20.23619380001356 17.794491514278814 14.273561826280188 18.286187370273204 16.145415299994042 23.71783407560096 21.195912459631383 18.486516167133455 18.135581037951095 24.274214577221976 19.232503621554223 22.201778979897608 14.19901966116212 11.40544202771669 22.428349920607594 20.35417507689932 25.45019079456063 12.644354750954683 10.150405839964021 12.578653784077508 22.48883331171309 21.493446584974663 23.957325786400315 20.773978709020604 17.26997371497451 12.133720504863161 12.385130611955386 19.293585111302896 14.015305570835434 17.7676643943326 11.557765473358893 22.55985392325419 18.593036271831252 19.620262982482792 19.54168753298324 10.476988670116473 9.202102024476 17.428024811896016 22.05764819624557 19.32013982351994 22.013549245668216 16.779026033874324 15.473445395514656 20.452486567976862 12.01466469135865 15.23305317773758 13.798424376048839 17.826693156040754 18.921918126403835 12.039418560065894 24.870345399128855 23.484793475956977 19.223477108753336 16.928902816348007 26.238281773347197 25.483785020773027 15.008342266650068 14.140181367043404 13.927254790441717 11.299139291275962 18.024104168942507 16.378620876163566 12.691749580614397 13.820402983010826 15.000145109012923 17.478431506139255 14.659670907549161 23.622954507899127 25.21029076845482 21.56996180630345 23.56036200584139 12.265705898184212 24.192396787877797 18.44743376963161 23.796837392352263 17.30336901813246 21.516739838233427 26.166094657883793 24.10206444751702 23.114266979350408 20.387418602767845 11.26351646414331 16.04147073333876 19.547986921507917 16.403890980958685 20.88350753568583 24.79688871142814 22.635141344622266 25.849819701510587 14.577458616072086 19.27139319050649 18.47375534281231 17.93418375802613 17.132851127171808 15.436246330852962 18.580615769093303 25.501919033354664 22.36366417539503 17.346976193623306 12.688543939690526 10.360769919686613 15.135787363100611 11.435647985422866 12.168407396407163 11.109707195050657 17.363320740809836 25.204845692091748 19.929145480480525 23.855994628643472 24.328258616637076 22.579923215966094 24.365695734067902 20.827228113852595 23.776357446092028 23.02943697677326 22.201280270033376 17.53751681077547 16.6767033735382 15.76836979201327 16.01860539896966 11.111327515477873 10.740971449462336 15.774846342986539 12.10938835246889 16.52058517293057 16.535752991653055 20.096572712721795 13.02945651347732 11.309299175610665 20.72537235339986 20.053610869943395 21.141217637824347 10.865221952841498 17.273522659197685 10.53921585435429 14.7298908324598 23.32496243852912 17.236623058890675 14.214613721368933 10.671222616161513 12.368747351524698 13.694537925560523 25.321179353399103 22.563698158662774 19.461317695592914 24.15364388563417 17.497507716584447 20.631717343619652 14.16203388853514 10.318667660187971 21.561517100128487 11.66403463951315 15.007640992547259 12.472266679032328 17.49807025476682 16.9524659777648 10.219243281143227 8.37146280010574 9.767242920878479 24.095438387560897 21.116142564604846 23.534325358012914 12.465037228187448 10.615729992904695 20.07111145471624 12.191017430788628 12.771708461888696 14.49259414335741 12.533576944175499 21.615226798559654 18.660537863519725 24.022604398995476 14.843211841875391 11.61475501075079 8.928582640642741 12.767750214403057 18.430664971213062 25.195114165755193 22.70377533130043 14.358929250213897 12.84161117039451 25.34244025044603 21.575530057504096 15.36599059066244 14.617868740153666 23.91462919336043 19.68055259074388 24.370936903016 13.739181438104158 11.304262411174799 16.865093211286 21.318968493480394 22.270516321985344 14.691384013905381 21.8641133865029 23.200781502956854 15.229102149978917 12.281523650890808 13.576668109652495 17.131425855367613 20.894602603407684 12.874098045447347 11.676008859807938 12.314822248716066 13.20529193273392 23.73500867844832 18.561531695379017 17.74553952798858 22.40917758756651 23.40491425027887 13.35518922226289 18.842227009732675 23.41860148432895 23.52223790040543 21.216384861256618 22.202999908709334 24.11747180975765 23.537123079775288 19.925151896446817 17.07065110477012 12.919246667076067 8.964502931527026 13.036531399936738 13.257992759445376 13.917298009844004 13.512145436132483 12.044892764174508 19.285619523167856 16.627694852915706 20.394605965279794 18.511525923038512 17.19702141069843 11.802080686076488 19.219759379611826 19.171183576767774 22.8099395144074 15.354873331101988 17.303344052666244 19.926913808023595 15.60311022444431 23.05474562172741 12.631659364157523 20.959286790626717 23.43563455645557 20.388874967029906 12.87159295277861 16.521321756568735 17.406423339119275 12.608539606512771 11.122285353734515 17.660928685613605 12.918851797233122 18.585169437039905 18.947751020109305 21.706212057627006 22.309067785483567 16.45203905191182 15.623320381133855 10.675430797465358 15.648847840291193 17.469228268011996 12.768439980717506 18.382713347169 11.061117104929084 10.912725430636359 13.152835724770824 15.423651330714707 15.561515357949931 22.557469633920217 25.399961730753333 26.090694202299467 16.46217570793343 19.420090312864513 25.433862922149075 23.950343691111755 22.666221164748833 14.339042369497832 19.189235899160156 20.72025980768636 17.43920566688733 18.984670596890087 15.030744867843968 10.655250504838142 19.060722272068098 18.22484616974009 11.823240131679709 16.472963237243537 17.8703413310921 24.48625047426151 17.823674221124723 17.878760471992862 18.713102366407448 15.122329678890193 14.053017811040887 14.042550710638526 13.95087102940843 12.83245499549248 18.233219611686618 12.621111596820082 15.723429186553156 20.56588569625907 24.417175538996062 14.139099744824696 19.84772644766857 17.017711081076893 11.073661971479336 23.29264778784803 17.154514493432483 14.79555818583674 17.12992748720391 20.593676338361274 24.296982461650547 23.649332020967215 24.10809808209307 19.638647645582534 23.00611302773862 17.19729450825653 22.849248227752245 15.77486525572699 12.521867213925248 10.728330074799127 17.009783118667446 17.429236473758635 18.74101453105822 23.86314360799572 15.496490926293793 21.46557539776758 18.634157850009014 13.185232678949724 23.26611340151196 15.124226034709817 21.111510968842072 11.367002289740428 17.357736364146866 9.597344783582631 12.751942246129786 14.828284197784484 14.068147789526577 20.987944046242813 17.37243702382003 22.190590462869594 19.70224563751134 25.6813258566086 21.24937254769917 15.163882143795085 22.39029810064625 23.692216023090964 23.80594580716108 20.077640512504683 10.186292373916151 11.241204961592379 23.821892599972365 20.85449625686776 19.53288954498684 21.800216689985692 15.304360273454227 21.28024373602664 9.95640457619051 10.10171185669217 15.82263786488567 23.548026352789122 17.194351035128523 18.16242949533423 16.689152876933214 17.010703388559094 16.140743843801577 13.508005917926608 17.797212947728426 9.931916480884656 14.891137283766401 12.600795571486914 18.901042618470374 11.155278829886692 9.587648656274267 9.440588981345517 24.01011447925535 21.961823523908148 23.08958589760856 16.626329586352504 14.967878565417035 21.97968021692585 24.975302459745283 17.71665468253853 19.2523887282979 21.01315931662273 13.25807682456445 15.602612961696163 16.924888328044016 11.428425059934098 19.00265061311285 12.781420786234554 12.857518646423232 22.71892895931871 22.878841717357748 18.12019749329082 20.689325578587656 22.161104162230977 23.315994259504453 18.442504380546346 21.135238378430675 17.080205952420712 22.877171518369682 10.841362232792058 17.010181591333666 21.103281817475143 23.72811320198694 16.926122645327617 11.343847351367877 16.176054924267266 9.35166845619687 7.438184333143519 10.60607208887014 12.86585183378823 15.057016572531927 13.769428827970676 10.346402827347678 11.427363583029122 17.124896220980418 18.561550611409928 18.1431596452674 22.705946441683178 10.503189630055475 18.01762271495071 18.305800815063943 23.39636502852007 20.81036314288906 15.925666382948428 19.47740973226222 13.937721769876111 14.395091288079708 15.194710421206855 13.715150903025027 10.79103403302906 18.850150487936745 13.964645583689558 19.864819652121056 13.804784994055378 18.380922259310413 20.755672017785695 20.784789297261288 14.661707025053062 7.9964893497189715 11.88928111153125 22.015892196728565 15.926334953174225 23.18881324997046 23.818375550687612 23.798854002951774 15.630589466053406 11.785701203182432 11.22683700298611 14.576949541651233 12.631739930983175 18.712434107382986 20.667871794185704 22.571409437394898 21.86956468268104 12.083422429591653 10.303882585159604 14.167184782181575 24.06404711836225 21.05944984217623 15.139521017619602 15.044109382831012 11.125388217196154 20.842614487207378 14.845143880537744 19.274443685140312 25.251979409165575 22.26722653785012 24.64837682908486 20.062608782833 22.867935286011686 19.95738941479437 13.376729971119742 16.478536314636354 19.52793434974316 12.878167776356879 18.20915402641073 20.059590465203904 22.17744166486233 19.79083922718112 13.699765576720365 11.351327752619788 24.416675078726183 20.544635816644206 24.121076794222166 17.826327264140595 14.11637816217356 12.008186444052496 18.610686816379 14.476161708959351 19.866033806638587 14.397921594350473 9.848230025135273 9.077628623948263 9.74087060161572 17.057113446666996 10.3098375514642 11.426341627080873 14.427943053118282 21.919302895532905 19.05861397365147 13.550657406769059 19.686628519171276 13.212484167730107 22.848172685989763 18.450151159710515 13.538465072646625 20.93165009463871 18.64161753685913 16.244860651225885 16.857999521402178 12.535775383132341 14.771649703841508 12.985492067231641 17.242224914758125 19.19695183339784 16.539669686156394 15.018102113861527 19.61876334621092 25.02974267598052 16.534892315422322 14.363828545957515 18.33710942286954 12.229230029041007 17.150499271866074 21.639275228034318 23.267423720805702 14.382490449761011 10.190886100357165 11.149791111491519 13.832114369344545 21.40197437595284 15.522022475551397 19.14902843301933 15.312626065689328 11.664958335201613 12.178073725344335 20.48496742432452 17.598257855190564 18.360056060312203 24.94665313417252 20.66764265814817 10.730917069680796 22.235147425802463 11.777448546230293 12.412101461065964 19.22683142527329 14.90749235864642 16.57032418476854 21.763502205137023 11.26154967451539 18.699693219579423 17.957866577304443 19.152378502773693 13.510652745850765 10.202320538930916 19.165557394552703 22.80293487556732 24.41703767347931 23.483474725657853 20.368933382813825 20.898849307603555 19.440435066029853 22.300199273474046 24.008023159503892 22.780256268765193 16.19598601532011 20.72681093429877 23.904005579781053 15.141512300430104 22.544397475179736 12.589570232852466 15.69591801562402 23.922659096703853 18.429161605696134 17.593838413608477 14.160945024266795 16.983041970126553 24.289191383043757 15.81615372674942 18.68843106208556 15.752598957904791 23.357437908299357 12.182742938357924 12.725784634375763 21.601571599643243 14.982054472710889 19.213421108513003 16.134580876424096 18.974319894119795 23.91235049474861 23.60486004028251 12.455338001926455 12.895768889690283 12.092559702605753 22.96271345176186 24.464952137777544 18.46221207948853 24.414659831502014 20.544110193989606 15.300266756358653 17.02030022408428 23.08859205842214 24.320964023010323 12.358044281899433 14.664174144634574 15.31759846536574 10.22555040277536 9.6655609632137 16.32255515828993 23.33927596022615 15.34398403211935 21.58157596329942 10.774965225848076 13.795116828284867 18.398800443120617 16.93050355978263 23.220488644639854 22.421839602271977 10.873805458698387 11.270664791210718 10.703584796121376 15.336654889947368 23.714836665318497 25.489779425176774 24.66093257833242 12.926186021320703 11.956316287157811 16.870358674564756 19.81236649436251 15.764147004051871 17.876480260115915 17.25864465853968 13.038763209312712 12.629354096871374 13.656743724756069 10.539098504744537 22.773009169534202 22.973889220264333 10.868161189167198 9.69172133351966 14.23980379100746 13.97839308695793 15.833319798038138 14.652677942758222 14.74241188639391 18.844305235004533 20.765605705991927 17.689123942996982 16.201666468357594 22.943651429739443 21.253663652997528 13.41286013710816 12.975468750138488 12.819693061476848 16.38339334825054 17.16052666899762 16.602305435263933 24.99357718569286 12.742846414715222 11.748529548026015 10.194002894569053 15.66188321706747 21.404162274142983 11.336255916353686 9.937132718819916 22.473358511356395 25.454880115274737 24.258926134181976 19.446856902569888 25.269809412128275 25.951705264968524 24.147611143283584 23.657801833742404 19.34820576319811 15.199213359924622 13.985375560774393 12.3415072414235 12.366662826782498 21.26950232242 15.98893657542482 17.558940742719525 25.412921618108296 19.028234792418576 13.315182276448313 10.408757927395618 20.250621735362703 11.11887193148743 14.547893177054164 16.045675008348084 16.54357893439471 22.121474889832704 14.165779599202786 17.32570709368517 19.622811356471836 20.582352920738828 14.353649899448877 17.96082542253881 14.823323363721563 12.412946248813132 20.584257985191293 15.06632127398886 11.6118914762313 8.53918693206867 13.741551824 16.41070547644801 10.935683059841757 15.07254360070735 12.729592589277681 21.61864925895533 24.09754878630908 23.664883355691597 22.009113428987156 12.950153517492517 15.579225966048826 21.31558600895265 19.165551945878438 15.364178822823524 14.897930881080068 24.0359976336398 22.307011746886175 13.24273271977444 10.216417411060906 18.156292657912253 19.738141394509398 15.167647065029229 15.115704201870807 21.733724487625103 19.495467958106516 20.687428946259026 15.636405238840041 21.539869578717695 20.930868433991495 11.979651222687838 9.951244252940358 19.957428155658945 18.64541657368301 21.0464789409232 20.566548218290798 11.372042690381331 13.785621793046488 11.978789788925544 10.34448173205803 11.292107749537987 10.208097331535448 22.608348163197103 16.622561342575167 14.141664467208305 20.419652383787426 16.35335889889996 13.052125684146192 23.06600292102688 15.448896698292668 22.64574066645718 16.54858978449148 10.751995723400512 11.355341952995612 23.724215305285682 21.575042294019532 22.34199487042937 16.05500236405469 19.053674866140348 15.654299053015597 12.094856034238836 14.613906330673448 19.10000813549136 13.784865554116216 20.76758278947398 21.444506205849443 15.094244533186291 19.2373866826221 12.90716784010242 17.746403790134348 13.984082273269596 13.02596333849548 16.210148919502075 19.273209676062187 23.086838639680575 20.78705581673794 17.23431050310718 16.712674043648395 16.682467679196957 22.986059930074518 20.56709918481901 19.61237254135045 23.067015780770912 11.553146721168298 20.483578170548 16.869368592323944 13.431086295549186 10.485383228397849 19.281659013200148 13.82467031239667 9.229132903407221 15.647372908375697 15.720740308363947 24.90726713004662 21.911754285038963 23.69781181463926 14.510012647418787 20.921100831224805 23.33022725667416 16.05628096590328 12.488078669711731 12.248236543344065 11.169497652127474 14.278972115504233 14.41767830552601 15.030257317097533 20.9719476564507 18.79104780752881 16.411554255518055 23.768925739839567 22.280051774767347 15.111910762848666 14.112473112389052 19.52124873286355 23.93695037561424 24.331394328331182 15.821144280433607 10.182982723154494 13.034856648629955 13.129501336736055 23.164949117079736 16.84330286212657 15.514265078846162 10.975751567682932 21.4008418311627 14.634993767528943 20.619114037940594 17.243311164174767 20.743943454883908 23.371697954182263 11.044079554386999 19.878631561653986 11.08020030309849 10.136762849101743 15.08883177563036 24.69361291283194 14.117126642996688 13.751731102752101 18.335699190895493 16.91686873671858 18.980110250999555 22.788235661015264 20.779414176847947 18.413185144568853 20.47112435419142 22.56773582352302 24.1438128240295 24.559158593647982 23.18547070095854 22.05008858515384 24.239865496753957 23.2812558597404 24.084007874946018 17.0338722800645 19.803548323005124 23.450179021697 17.64391368536397 18.918602442485035 18.03808584863419 20.085334798632015 12.09503934553475 13.877901491611054 12.719588455439203 24.75704547456075 26.24360589714062 20.872363439184358 21.281240802078553 17.437172605199404 20.72919318655195 23.103927594641178 14.88025183129411 20.441245895001693 14.477439785807103 21.74999358424243 20.90290289205807 23.602277503174474 23.07524521324458 21.166606764559013 20.259536827509482 16.844024744439295 12.109672032785191 11.91310618995493 10.053582757180514 15.662922480951059 20.913456900292466 19.059430834012268 13.008630480892597 18.034331667561844 20.994457211723528 18.815407541561182 17.853621571888166 24.245718940259138 15.601918674097439 10.1636392621342 12.12750176077714 20.5385626049141 16.815978968779405 19.220199003958086 19.599736881181258 20.502509095962107 12.570716050188107 19.332817772519153 21.74117742706783 14.109335710287166 24.949597284530515 23.170271186415558 24.341066528450245 22.42027012631534 25.05215112913237 15.488039296206518 13.095147804190347 16.222637632600232 18.3152844864691 16.462791869789093 19.381168080936767 23.876391695669977 21.128440301396918 21.849832421580214 14.628538759713964 9.717951703722864 12.596815043482545 13.579463677750388 15.36614671907953 18.839394054095532 16.581092561283107 12.258623608602322 15.470889161455208 15.15924336817136 17.408673699097182 15.564493873435103 10.603180750633497 13.123017652578092 13.835508607044908 17.73595277061846 16.473948386638945 13.459861680114658 21.66725700760169 21.81705845859669 18.26660631795447 11.357145579800612 15.953484082861078 15.99647352525809 20.622639088958305 24.30741590335396 23.14099990567803 20.811020782280732 12.707877126252985 18.064202469362716 20.70763354370035 12.431839901984459 21.591145284170363 24.3614508523628 23.409160629808575 17.586603794938632 13.901757342965016 22.64023252290296 17.475867767762345 12.044655400351935 15.937375692426736 14.322183249402897 10.933980372061674 12.208985122342721 15.596194550573589 16.665186020210328 16.87695439560438 10.495232000841446 10.467508895387578 20.1944269645989 17.977256491640517 17.333464895733393 14.610139559166253 13.859082560569856 18.76899365730038 12.544312230969178 14.035202229104891 22.45264348321678 14.249442552746052 12.139349480722625 12.151705309813947 22.242427207125708 21.237144299752693 17.22454203004424 13.137637954254709 13.052639875387547 18.186893750099166 11.922692573883136 22.001325832316507 14.089275155168256 23.894935152656032 22.46722405314666 15.463953360468748 16.635719595154093 9.706419638677222 14.94660837646815 15.972104149007595 21.74073183783816 17.3374060771086 24.29947053089777 26.303484740427262 12.391582069401975 17.279373818491692 17.846370066110218 11.366405996941376 17.988200414532 23.32281993262114 24.435972812743927 15.586139200414053 14.168616872313377 15.62971205152808 14.22362161319829 11.37714871028596 17.837592783284055 10.605807355649716 21.27466604536219 21.038953186949012 14.548484109362176 19.6301209004921 11.220875976426173 11.0380865425627 20.239760609305502 13.632575481480858 16.999018354429612 11.450100149942811 17.521511524581328 22.3082997159662 20.270296238220592 18.57025905584202 17.319616851270617 21.503953779314426 14.548202576598014 20.748699192463686 22.4747938068404 21.951480520713538 20.824066101207244 23.611708773866887 24.937255724467057 14.698578701175988 18.873533686753593 16.419770706529462 11.100801766081958 14.10896899756505 17.581193690810142 11.885148266638849 20.271313958061146 19.978649030281446 15.647061351370828 17.631301765011038 18.21049966353418 23.181245091784334 21.79390691279664 17.722392500543844 23.192547654500117 15.110912791481578 21.920571125149586 21.9075423290155 14.190945323406835 13.737080935790306 12.50573750516628 20.463454295888997 21.358236732542043 18.78569086457341 10.67152529100113 21.557195598347292 18.476047357941244 19.80938019743353 14.488289022628347 24.951331090038416 24.646854682624014 25.399753538451552 17.819978044994407 17.809770660789862 17.960971554789012 22.597522851577214 20.199035444435236 12.501372318013248 18.06781396056306 11.86073927040297 25.035824243674803 25.60752201306533 11.68227524558331 11.795958176009734 13.499579538868279 22.21998493464268 19.01711230741949 13.15028744269725 17.587893075282675 24.073180483036776 21.123596870043496 13.342785920595393 16.86272781494689 14.753235325864054 19.775000581627797 13.084874733923415 18.169577224173917 19.43528942308038 18.852758219457574 22.723725781142146 23.250787244063037 17.815980663933967 12.351605169867105 10.614968186385749 18.43287542235721 16.93156084780442 21.852289186860443 23.379584428181907 21.631488916305305 18.5603177357423 19.063536790184628 22.194048113063264 12.685966606066176 14.077315458556242 24.005532907736217 23.471591092091305 19.062341814468187 25.36054541925249 24.075153361594996 21.893670423666695 11.396986543918558 10.60663243786076 22.93473794684752 19.370677038714145 19.504190676733486 17.938889843822416 21.355335988318334 18.64091002303001 20.14456146959019 18.680243819809085 22.205571229648655 22.089552103914105 18.026345689340452 21.423072194350908 12.609621299837968 18.92979853438654 13.836958434631626 20.424413634054513 14.199352523415248 11.245167821973121 19.771525461279712 24.91747518747572 21.002290452410307 23.2383973029279 20.816316214965443 19.466804564030184 15.30772195124765 17.62077886980453 17.34719673562329 19.318981145783088 12.012595772297477 12.171336524262221 21.29244975420777 16.79263484216259 14.287430373690244 10.199900064379056 11.494794227096428 23.134371215269113 22.56390451846444 20.36805009298443 12.107046851753642 14.025652395671822 15.847439713024515 12.702858520077571 21.902901012818663 15.948088320579302 23.234769187799387 22.247118412647403 11.38167119463877 14.01019873225886 12.619447539977665 22.594293631878216 19.065237657922783 11.56714405731104 19.425142452383213 13.792066801643394 22.230558429865873 14.768801777363606 21.775715294845348 14.440780731150877 16.017282306833053 23.282313792386063 16.79697293938508 23.309189378924486 24.086436489217554 23.87046258834006 17.44993901041888 17.512639841071934 10.41595306422012 17.56783398526609 19.593018922151852 16.68865003260399 16.874265202292573 17.03501904578898 22.91096353455654 16.148356634654995 20.500545363405912 15.683910062204905 15.665657613948438 12.344245919629502 18.14591812097852 26.263083785975635 21.419111388496013 21.0865284395476 22.652198571831665 12.563614695895016 16.225828976030087 20.28465066978736 20.391131028156266 10.367459986149068 11.984549823333154 13.135371662647723 18.254127282056757 17.561497416738607 15.764327846455807 15.433807122142833 25.967795565222126 21.38302711259208 21.536631560253976 17.68109502580105 19.453206211668 13.43005832293429 16.882516386935674 18.19967668042909 24.398552017975756 12.841976982020721 16.82827010374414 17.211471361651302 16.961500329552592 14.726263382790362 22.447507263818014 13.134259747246745 13.392965082812136 15.001489703958661 19.39639209274258 23.515835877996306 18.380752483434428 18.52358710559522 21.856218129679483 10.992010515348168 12.241448459963879 17.769774849709226 9.475316956992458 16.506806169697924 18.684137028576707 15.051107349861422 22.90394415679721 20.14416600273872 16.9603352746021 11.18808052491131 19.200369394313846 17.768475327628177 16.924467924979336 12.236976804246273 16.370944544295376 23.84730105755178 25.494285293584994 26.712766219453822 17.687972101789786 16.609242276825174 13.38158766593534 22.034148694885275 14.97756123808135 16.266136594516343 12.709573882455484 16.326152308969245 22.89861280765518 22.632465409362545 23.679670367858137 22.093807411868003 18.35101960116847 20.8541020429694 15.963469864851785 10.68510720451354 16.588655434840792 23.90900028986513 12.077846553426228 17.96769392413102 15.149736848573228 13.610417145625966 18.194750455931597 22.373841008035196 16.54933793436037 9.786298961202217 15.487877039054382 18.988485131714807 22.162523580903276 13.61091154071083 18.024584325792908 16.28334414299519 13.678024792681434 20.58511307258719 19.177129282389934 10.36237208575662 10.166734792467587 11.293469059225684 16.038953414746143 19.454352043321013 11.183643923418641 12.417803901123342 16.337620107904222 20.878816108411105 12.772584919320153 16.19025249314305 13.057346462913502 22.257479823769252 16.725339358782136 19.302926475894395 15.361431903278561 21.62280293420266 15.665653071561145 16.905345638328104 12.541551089062873 19.54089643143871 19.25798279989094 13.506345671175424 15.809303447512047 23.908912309349944 11.87438792086094 12.12066120735861 16.69917253788084 19.69435039006354 21.74389739656469 15.061601422092957 18.599380649466227 12.795291941416949 23.456447677552624 18.29992790731165 13.12498906673152 16.054400946813814 16.0728680119107 14.38612850892023 13.087272529353205 10.60806731182371 19.20015179998215 21.25916139207473 13.460436512756578 16.646727353421177 11.3413482014693 12.47504202095635 10.548625618341203 14.968748453502096 20.391503629034307 19.51460004956442 17.596434732655098 15.720484680067354 13.184992827906525 24.278453675283124 22.031079177522365 23.632697361032303 17.504264767967875 17.569726302106375 24.251163513263606 22.33302379008987 17.696634110601764 11.232125004574 9.10261701797551 20.76514030480041 17.18381857688575 12.540878332190424 18.72211730015924 17.04926414671855 15.1894946453417 21.223053159824417 22.457136135921736 12.446315121965531 15.504714664087857 17.636349614503068 20.79235729730308 23.631787403193588 13.74088855708823 22.751815709091357 12.605940197219095 20.01350059746077 17.885388511056984 15.696768565883206 15.414250771292929 22.075093340082688 17.797361492001688 17.188952715444334 15.482855230688875 22.232203202732887 20.69246707490769 12.225513730589597 18.41754833161105 13.6389213353189 17.31703193470008 18.95526319634781 11.389325173069254 12.900592604399872 20.875587782435247 12.132570695117417 13.756805910539331 17.750893502362704 19.198573668050724 14.085925621519216 19.050759111863467 15.320102791906727 22.86725203121211 17.79410753823847 22.18701372687638 23.759520496952597 14.801962646346865 23.669232881138303 19.658512805744245 13.29079581749815 16.398301375596134 23.747602928556656 24.03938289413478 14.003245163061704 20.044927196309825 22.548941900862147 11.637390167013633 20.801060742501267 14.17797198798533 12.258102218807391 22.108135009961668 10.516252766434953 14.808033860330209 19.21552763759505 16.621476088156683 16.711302036392514 22.638743617835946 14.2730887904143 25.043524742768312 21.986884365548782 13.739498288763135 14.44737645036787 8.932028939741073 11.04117490102832 18.15155334288664 12.645056732158624 9