# vtk DataFile Version 2.0
Ocean Simulation Step
ASCII
DATASET STRUCTURED_POINTS
DIMENSIONS 200 200 1
ORIGIN 0 0 0
SPACING 1 1 1
POINT_DATA 40000
SCALARS Temperature float 1
LOOKUP_TABLE default
13.562610934588559 12.76273903039851 14.061609428284788 15.675965456936895 15.126801367693163 15.048389128035264 14.150563365993513 15.80358899088224 18.586806846028193 17.116982033876067 15.295618188682242 14.83045050556701 16.574490542897628 18.22894441176895 18.292145570728824 19.53661377795956 18.813020359277434 18.63821056035542 20.08226622345178 21.132948122037412 19.179231627523997 15.929398317678784 13.313736981228047 12.937589981478347 13.684196433560897 14.239761633677483 14.751098912849365 14.422697384557537 17.454372207521065 20.32083603750539 19.85211944232479 18.334533301420432 19.313239667806755 20.741433809401986 20.498539887355385 18.19303514575507 16.866226290703253 19.292259804927962 18.362008837986743 19.457087801764352 19.790063134973177 20.68765757670113 20.161091564392795 18.767532788140493 20.137022078091505 20.98845632944061 18.386495800502324 16.100030363490227 16.210822910405632 15.63225755950966 17.042827596020622 17.734164509988087 18.2745864269585 19.717281707203878 20.418270037077672 21.106354439295046 18.191741654274395 15.186785701924771 14.756623265659032 13.674265119137647 15.345410001213871 20.11983240119536 21.647238835191132 21.225250478206203 19.211661582171708 18.072202288170278 19.635313619339335 17.77919697113472 15.476454871229942 14.3176126001144 15.68076817831743 19.108185520420268 20.643112242706078 20.53581797130146 19.35974805254709 18.33935160765825 18.703474933939415 18.384726549790567 17.30480801024473 18.167703724627433 16.75839755243594 15.034684649258443 15.557771435121046 17.440732743111216 17.144498470798528 13.886814281710434 13.02729132837552 16.15364082102309 16.52636743253508 16.71518064116193 17.4454844734086 15.634277985181502 13.46889606395038 12.678778764856533 13.892775020773628 13.34046325184784 13.14086019633867 12.85956652312105 15.160063971845624 15.9299389657127 16.425229558417765 18.432620306617295 17.33741841024789 15.754183247269223 13.547607708987085 13.608279837876287 16.047571584633186 18.127590113809863 18.285382210926496 19.367846198179258 19.248159311883153 16.211805890048204 17.474337971749293 16.948438570245475 15.117795941112883 16.982858434266447 15.1920198454298 14.842257262761429 15.62300952805086 15.722849367565361 15.635258144160874 14.013494190360104 14.330095218473922 16.866588300920448 18.74219379898606 16.997596238630496 16.934043968423538 15.935289741563473 17.183492876053286 18.862008771924014 18.5983519195226 17.13907251223015 16.58277904104436 18.22630854116641 21.169548492974577 20.693151657669645 19.459357997049295 18.652807989830976 17.054258050375914 15.50415798768152 14.75426322156666 16.191448080567053 19.02242949849163 19.67862033318172 17.689225796141333 15.825694347673094 18.654050129148253 19.834653078521043 18.977027614438203 18.06280396667645 20.300357029370794 20.989430132780345 20.939629183975352 17.285077301566023 15.934210737866213 16.897093080262245 17.985115511156355 17.394285034792496 16.296070619437934 15.32865015251331 15.684903252704794 16.29798000997726 16.034195601612062 18.57324684950282 20.091437815296924 18.73158400265267 16.453114944186115 15.101188677318223 16.505421095463223 17.365578809122173 20.016605066806296 19.936160258458454 19.226793498390272 19.78596812566652 20.721314377262107 19.085174060913086 18.663570333774675 17.43412082330956 16.814106496407668 19.48856196447128 20.351432007501046 21.025265964194226 17.422457711849376 15.489716961671078 15.537446586077694 17.629822894722803 18.223148384710242 19.289625177282755 18.01525701759684 16.66895927440838 14.663587523736307 14.177924910316662 16.368878469004066 16.39591389498496 17.104137084517774 16.341127892761644 17.910010655790998 18.404525839964137 18.74870856607894 17.09054353481403 14.282002678461454 13.37871447520006 15.927639792645886 18.233874651007966 17.970369337967885 18.04318932802542 16.16989391759388 17.007038418215537 18.713609805161916 16.567879204258613 15.343899959599801 15.4128067855351 16.773627280686913 16.94948162016958 16.46497733328253 19.514541169064756 19.561841019600784 18.899430967205518 19.747749604872723 22.16318250167888 21.04711980235357 16.837853061108653 14.115686723054607 13.147315548499437 13.756581169252682 15.541255976690998 15.421031113505956 14.446531917628725 14.895369258333696 16.26424562298417 17.159100004847353 17.477819139180276 20.26440689428129 22.569567469255496 22.37457657805153 20.77368688140655 17.925395062503036 20.11310576303457 20.144840465503485 20.864177610870037 19.95380634736524 20.55003305791367 21.736147451189876 21.302968653853174 20.81838048095211 19.535497565464382 16.280911904230514 15.59520736210981 17.112458020153166 17.17958252045226 18.355450802162405 19.98709341451123 20.670532410932008 21.28695568352556 19.119366077213783 19.12525345396581 17.88456152626796 16.367059705264577 15.628228161909764 15.023420802359496 16.728581521230065 19.977342355579346 20.31710414505513 18.16334688197414 16.12568980233467 15.688512096799728 17.056528618852404 15.436402025564421 14.601668756416903 14.408397447929879 16.623260016127073 20.54237866429461 20.70122256006345 21.016569383641517 21.231415769020767 21.21041132203466 21.69628504113615 20.99041628001445 20.699987960884837 20.58282427937954 19.521549594801407 17.399642176200455 17.00487590703602 16.589558904959382 15.382359827926036 13.216276079140549 13.496667797603502 15.591790443169769 15.716453350903306 16.813484569035882 17.247918167992406 17.137613450718046 14.957621566168736 14.292802440056246 16.899756746430164 16.928445492250347 16.46414565956071 14.007815103577046 14.902733242024002 14.016022766254977 15.395397701955858 18.0614101316216 16.998526273389103 15.664393404196915 14.120596095538453 14.703153695391116 16.890344793658635 20.540636482294275 20.4679730524733 20.007843425474594 20.719158619689985 18.804045832234014 18.636238396402174 16.335277780157984 14.131156398819714 16.23934185010432 15.58764079877176 15.484436181729507 15.833377934539863 16.623888745502196 15.992231256335963 13.634152680288452 12.045372103623896 14.226620798214443 18.91748775930962 19.740797105431838 19.020407862113448 15.944981327961832 15.581496488650705 17.28499574864941 16.168935239549256 15.351374167007846 15.448065585544825 15.947579304050032 18.92187300767359 19.27355138841173 19.220921168821288 16.449847200990423 13.880927969946317 13.148940053005918 15.406066363518612 18.24671031619914 20.747382061823533 19.914179531111127 17.23144528015802 17.148304400877233 20.443658570721706 20.072306608896536 18.07805126580267 17.71967398004911 19.594984227327615 19.84472049197744 19.7294155952116 15.991534611193773 15.094154513448311 16.33619606022485 18.39214862991331 19.2968279471698 18.23118030308859 18.361032800040057 18.578505927656654 17.137628976215012 16.047539718644362 17.003018254571984 18.661241818487103 18.585561810381613 16.22988833393646 14.1165865044579 15.084272615252699 17.169385355666908 20.263687518890016 19.050399905850337 18.027857101648603 18.994987040651804 18.529309188399797 16.17428015531657 17.31856329254275 18.636263996996945 18.95580389850164 19.4866187744223 19.54470439318598 20.27238364256766 19.355834487747536 17.899964358146377 16.883357536099382 16.147954405400117 14.423144804910779 15.521023068280128 15.889142981663142 16.09254849794084 15.382593449279907 15.196651561575854 17.162922353509313 16.739443682660653 17.320052544310744 16.832151945230105 16.61779282414362 15.834498254412924 17.53918109971687 16.898007550466975 17.151972236301628 15.72603350723515 17.081461195972256 18.62052089908197 18.39349883727539 18.27035152941165 15.689088504026575 17.436380742210712 19.59996321215011 18.004551514403115 16.69256687848011 17.099382150108237 17.253837149912986 15.421012653732099 14.371280427536515 16.302729812382896 16.600750155363947 17.650448692875383 19.182669554133906 21.06925278180683 20.76176738636967 17.59137014590464 14.768157726714312 13.295678863666769 14.82529451024757 16.901320022862905 16.03167001702893 15.193466442227718 13.657587015243852 13.668435383483084 15.292752398003566 16.154235406962957 18.633465872844912 22.180689092974088 23.429623675207466 22.703734920867362 19.629788097345987 20.756274269386832 21.716671302580554 21.28996975074035 19.970025850330398 18.638280798291763 19.14404328618255 19.721336342084882 19.302635847132024 18.624281168578147 16.211913673223247 14.860600866535892 16.758091273887572 17.88316409494673 17.395471518879827 18.593477284508374 19.20264402020441 19.95741258502123 17.91065201778064 17.87638589205875 17.38763538215447 16.385957061403772 15.124301769196526 14.077663825061657 14.409539400823556 15.786484908850358 16.929581499431215 15.221347325923 15.367506768673747 17.2039776153006 18.844434902689006 16.837452579094208 16.337404175252257 15.803744877809379 15.890949200025545 19.47567072532639 18.67218824644421 17.85135834056672 19.082193598266652 20.35287627024691 21.55176553431983 21.443591645628445 20.8588707049182 19.892401576887252 19.367441711523433 18.336471735448125 18.587145686235285 16.599844431531942 14.753053299025503 14.388579772027667 16.27655648786476 17.013033670417315 17.22948170905212 18.30680310446294 17.37084458105865 18.331835389294735 17.530536054123225 16.705168630992578 18.02226420961928 16.74862829056403 16.61142569384632 14.676369930897433 15.540803089812695 13.843417114714928 14.512563292104641 15.69639366259298 15.707637386483935 16.797194173445938 17.21542901445723 18.259975795006774 19.3233113421514 21.788470489184537 20.32156738141125 18.27733748562494 20.061864809360262 19.721420209290834 19.512447136220274 17.444966445824 14.347711911486275 15.667775355892337 18.08332385108245 17.854214586799408 18.14263510962636 18.436550388255238 17.18411073746702 15.518022136521195 12.58914701129269 13.916377907562056 18.28092489113922 20.74287906501921 19.72089561160406 17.805071158190966 17.1148614093818 17.422426411668663 16.794596533021608 16.360513252805703 16.403123635202604 14.976791202865645 16.712661317921114 17.231841156426967 17.31971218660119 15.008105188983563 12.755684896893971 13.767849850896704 18.33430713535959 19.92365900503705 20.282766673655086 18.364848362657266 17.553861713076827 19.561536634550812 20.826685143771915 19.399305043382654 18.466491291599336 18.52271753710124 17.046555787595196 16.953768455992797 17.482776818945954 15.353222654060376 15.99634355424096 15.72203419989234 17.20676977859299 20.09443251751102 20.1190466780371 18.563506696013345 18.560997887881268 18.760301757441834 19.462263980437744 19.402223221053397 19.646599237739867 19.441994500191637 18.196012935887207 15.395711787232274 16.69075139317203 19.202328559236772 20.436074845960174 17.326209603201995 15.257204091126043 15.437005557243813 13.497532291601127 12.111660962586656 14.12757674364032 16.29523819155763 16.72739505486968 16.509277411851695 15.102133415727268 15.772150075594903 17.526019945782398 18.305592682809895 18.77301585446922 18.079978451904623 14.418047082655542 15.079396217177205 16.34657107628478 18.31816151139015 18.83001168900465 18.092224830597036 18.14856125436915 15.883734957914154 15.609015206405584 15.823368689937231 15.574246812983544 14.917506775560891 16.96000020817609 17.041900554465887 17.295027673421515 15.791795336401307 16.750954706175406 18.05408618427408 18.715037541074345 17.01233985108336 13.368540907129306 14.61530030098511 17.820864681364483 17.726026433034352 18.779892103316097 19.548701282945686 19.017468099039842 16.5339067037741 14.8396552079759 14.928564472104563 15.623344476418326 16.98841099847544 18.776457800251933 19.647469222560733 19.7642229517533 18.001380977331113 15.08167626758432 13.921215090651756 16.079492376616685 19.258644362167754 17.658624044000188 15.44928302174651 14.02271634239875 14.259961233524335 16.454592873868783 16.006737179426363 18.006844307122176 22.098170663997745 23.405109256338935 23.1120743694453 21.098627741430803 21.641894777828078 21.2554238128091 19.490865475807162 18.857542006708325 18.024375178151207 16.832070808037926 17.70085703844954 18.32835303766955 18.831915747244594 17.88111904000596 15.75246263131591 16.602112312602628 19.70073448015818 19.143466637969922 18.7899872497707 17.32668353083998 16.822645175074243 15.487172015107959 16.510857938142628 16.544295858790242 16.942515816763454 15.612859647437075 13.356148040841617 13.021334444224 14.192618540098062 15.58646982863926 13.810118155668114 14.25979688209597 16.213660888410377 18.34675694084433 17.770598934281164 16.34283371471248 15.98400487000852 15.231181174294653 18.171783986710256 17.58346795765468 16.20911557457204 17.963415976643454 18.584518523426983 19.280585114607497 19.333080114260312 18.277088960239986 17.29048544726967 16.41679913546907 17.250938119789218 18.455667998601584 17.174385413160596 16.19048557974978 17.55486129101246 19.76605621974055 18.185417368440632 16.333602460629983 16.400948693128253 16.024358375007285 17.73868952096716 18.656732109926804 18.475360933610943 17.211034188479694 15.110288709315205 15.119408138910046 15.446872176762277 17.54280318781765 16.28041561181278 15.571738821887402 14.796188590014358 14.801163511125768 16.129998669362212 18.169380135820965 18.514973247943523 18.661571293579232 20.24354959818373 18.298210874198197 15.551139430537232 17.100654710868906 16.129664886577753 17.016519442540872 17.330830108360637 15.850217449755394 16.845398345692 17.99826138842119 16.606578741344116 18.083976467576537 18.232417039529413 17.88610319232344 15.652201677577041 13.538748709631568 15.994384764925831 20.093909257415422 22.04919556032494 21.212308286857635 19.354019695916307 18.802819210900346 18.349864729270482 18.42690059721269 18.94968853599985 18.812222982888773 17.05572053724362 18.56069474250972 19.011764246815506 17.519079980858443 17.07824309522082 14.726390246429625 15.814004741398119 18.668388529479927 18.436202535371578 18.068870678202604 17.240401443026325 18.323675521173342 20.19664878312826 18.954473240630215 18.064621746666077 17.999283498610914 19.24116331207429 16.804350069036605 16.52269863456588 17.903418137572963 16.203495471583572 17.202983244844145 16.62528137879759 17.5715910027238 19.6262480143352 19.753872876068233 16.356843018764906 15.147485540384697 16.397717629246582 19.553730761483926 21.171565676013355 20.70900077569869 20.98386682118629 19.24063879627315 17.51153191552871 18.50039467279406 19.775848770781703 19.27543672606146 15.599991947166446 14.180002578637428 14.281271337656776 12.865629149688015 12.882560347955538 15.751562111120565 17.92563580480832 17.369235681180776 17.686221552511373 15.281787758419068 15.108615495284743 16.828184357074367 18.61635946024518 20.54998892670812 19.514164174038886 14.692327631089132 13.18800531716497 13.991070244902138 17.003996663132497 20.297896888394323 20.623940526747226 19.17430172132304 15.575012071545128 15.357515602272706 16.361439982964136 17.261486701194134 16.656744430466592 17.797203397188323 17.834773266893887 15.891760962898893 14.942286848963246 14.709885641869214 15.431659333284717 18.67675956193464 18.621625389425432 14.031351282542243 13.323390183535448 15.46877319060015 15.978807456586468 17.24781229056722 17.924138116453868 17.907623291922402 17.992999927349523 18.07346334127808 17.7533165556539 18.252654461762692 19.874547753447818 19.954766900385387 18.27836684198014 17.66445954449729 17.272761870165418 16.85849505373954 16.599393650494925 17.977674471566104 19.937037155202784 16.80598182723034 14.702953726641125 14.271847195366963 15.657417218783756 16.60871302043371 14.635213697347089 15.831918075034997 21.12699736033494 23.451288760925305 22.8767032219873 21.59976578401272 22.440444443130758 22.754894551098868 21.57420817478357 20.171302157229768 18.663132108593853 16.605696297201476 16.499985827779426 16.500374656391415 17.52862772930143 18.80890350554749 17.84894058001316 18.34472158893405 19.91035941032664 17.804470836784105 15.64197403214352 14.625341014599355 16.038839647013035 15.199038973134863 15.879870353802344 16.253825366122708 17.41443074661249 17.849386580825634 15.961094589676827 16.12085016190341 17.40826314848511 17.052669457330662 14.854791856122823 15.265814491864642 16.062507549430354 16.797244397195477 17.89271408438523 16.376107587450893 14.72256664304363 13.36679047114703 15.826890549204789 16.515285128675476 15.334922515699736 17.189641079728077 18.054059872106208 20.271528831718026 21.366354647832058 20.764111151804567 18.351905211617183 15.805817329829777 16.837055809496988 18.671999872244108 18.056259778647593 17.433105123241994 18.67784721111161 20.81926607191618 19.190431822755958 15.454755986306553 14.235809383973416 15.65201402427149 17.099690104984404 17.205770517342614 17.716913583694 18.061528837325227 17.035482495988173 17.037266360982052 16.92949817676251 18.53515787651607 17.32054663331585 14.599857493622467 13.83233177344383 15.918477000675722 17.365015812344215 18.588820157253206 17.873221627763712 16.59957373806803 16.934623677849423 15.426150109120252 13.436851302668602 14.302533239433904 14.916870168503195 17.934708943454304 18.222294727157156 17.415369858869212 17.98651128000244 17.052609507986812 16.354069112719067 18.453362674347566 17.953975796767352 19.017811123357212 17.235271924472254 14.885520002251623 15.845185841349442 19.683382871541493 21.31970220089463 20.284353472500502 17.83007668170152 17.482281795535847 16.288293624652557 15.349456915676985 16.35250235177921 17.446982857521697 16.963729882324003 18.431657895457615 18.072805095282 16.52990356244276 17.26127084116954 15.879924735755077 16.2644880006914 16.174009988612795 15.852912366881739 16.778927209453947 17.57818802941718 19.136419992314124 19.850853874415353 17.685558941266862 16.75468611573833 17.511817100391134 20.02089185852226 19.26621481501263 18.53088882619208 18.33832042373644 16.02869045833188 17.25025419890085 16.291051242710033 16.16045393191563 16.4316916989235 18.1241973806266 15.956647773030848 14.082672042356881 15.394813966036892 17.350031270559796 20.27037001313003 20.565241311045558 20.796670401939718 18.851171790144114 19.735552038917515 20.393939900493407 18.05259343780172 16.311903341094254 14.396827724841799 13.461432903188179 14.744730546282403 15.50863792074782 16.255073678290497 17.48456841093168 17.77060803693224 17.491060422073065 18.727694561201663 17.37354604987025 15.952431026143454 16.160402938440285 19.085668990617126 21.213614931582548 20.10306719254661 16.06867021607215 13.062188919048808 13.373753254617766 16.004631933827827 18.8874225909156 18.454756610690758 16.631499894526563 15.42157018848562 17.309014948589667 17.431102595207825 18.30355775812641 18.08551282904593 18.968776240453316 18.32186410447673 15.550096150008649 16.600772551292827 15.32699950467944 15.207265034679397 18.229158741296146 19.81835656827114 15.83606030507117 14.90848256111883 16.033421073315488 16.005518219207197 17.39966072267816 18.74451750192643 18.4337167434597 18.9315789807275 19.621483542505132 19.848981519742104 20.564730612645263 21.645360052151396 21.69066713127093 20.630147521872328 20.310332011097042 20.392425672218575 19.85537323812013 19.043987532595548 19.596772936126545 19.74743531005837 17.314491811579753 16.480702833284038 17.04639707050138 17.458583431789428 15.842221907008094 14.418539009717966 16.289120046878313 21.014111196569193 22.788828594576184 21.60783093507721 21.346856303943746 21.271963763037895 21.751562357178113 20.740053574302024 18.701765949104466 18.53458249358715 17.83951022500196 18.42703135068212 18.349397985323645 19.37448555583136 19.931086816497114 20.1679519767101 19.611955090297265 17.43507710240389 14.701425385529515 13.706357436846197 14.281863607759039 16.313882021466984 16.92012352840458 17.22808484844452 16.986842959351875 17.926339571398923 18.441922524126888 17.63789505131903 17.611297752601438 18.686800631496872 16.40941319604149 14.510876170472393 15.473008575347869 17.339111195639127 17.93498337953436 18.864864320828932 17.944763313668037 16.17857536038828 14.509985662922245 16.894005099296532 18.182281722516215 17.78183764473156 20.303447845968435 20.887529926828865 21.654293554183702 21.73498952325785 21.09245244888126 17.39859714274553 15.621930845890828 17.33969318912171 18.708006379956725 18.567789067787892 19.680375977170876 20.793791991377162 20.654064744176786 18.51957192438254 15.232528697559626 14.220400142663744 15.044389177448892 16.02178030536068 16.67807127742114 17.875898823087365 17.51341434122375 16.368946913566035 16.72068771604197 17.16440884237981 17.888436715207963 16.53296583421441 14.363070741118142 13.985209615204209 15.675171947323362 16.761916656013838 17.256721241440168 16.399558180340655 17.18328037171419 18.31695478303385 17.44616271562441 15.495250157206021 16.201275437855912 16.99381936366285 19.210164097526835 19.986910362656204 19.789910291692497 18.892807599190306 16.8068956831204 16.545594513699747 17.722896606527655 17.51259743807807 19.328626559710283 19.244998939034303 17.475311466448815 16.503921822876233 18.365987343362153 20.130819042034297 18.428911372883395 15.63234521572887 15.56350228672144 14.84352902708978 13.936191375459792 15.177928702186197 16.3854804304585 17.21172313144566 17.212353389196704 14.98990482411834 14.613017678316883 16.86769504476879 17.451646059770905 16.84141587179612 15.484249867827538 15.572248344367472 16.38918373876442 16.488117225761073 17.384733757948645 18.864076850937185 16.422027081782737 15.38205909966928 16.833315057807173 19.649962947200535 20.06858031254655 18.890545731685073 17.290865491624633 15.75880712143991 16.471392989826693 15.363848058139753 16.97871611502842 17.150563904765104 19.05478402853027 18.2345910159494 16.259831511843558 16.193576209618165 15.304530111692772 17.215411369708097 18.031577581760622 19.159848058259023 18.55635183631922 21.011100547077703 21.857259138992294 18.16805792771427 17.292709680803075 16.358543089661993 14.564744622950714 16.670042051731638 19.182191607339593 19.318482995998302 16.78040012457081 15.6975739859424 15.802716330300308 16.286477254128812 15.77980330949779 15.729244984242149 15.706415268340821 19.40637641977149 20.21486588802023 18.6974192641378 16.985560279914274 14.273293343838088 13.968372608418234 16.4576995075154 17.239596943555423 17.37257641914795 15.550670751761587 16.4457386944513 18.548835349261367 18.257312708000825 18.085064624698703 18.273987591914167 18.100561184353055 16.41669186005438 17.180834247362018 19.423885870598806 19.466043248161657 19.099720005473422 20.439748727937733 20.62476154335867 16.57507226559832 15.975422042428514 15.792862453626354 14.2545755786322 15.639265952161761 17.170301686616305 16.757596153421364 18.712002732379325 19.170508121906686 18.147482193406038 18.146427608488555 19.59359683923906 20.815412416401667 20.169008049735066 19.06251776906058 19.83091933203721 19.682268185675873 20.62760710816055 20.660190625620427 18.156386675533092 16.208785221976214 16.085763642733593 18.303925299933585 18.333550300216974 16.593025801680085 15.081417530988078 17.692685156294917 20.045559889521986 20.736594933190478 20.169325256273698 21.699694726558292 21.814967694921325 21.517245970748693 19.050892522938074 17.33476647184425 18.309052099389064 19.48412330622228 18.306550164650666 16.985798390381525 17.54945855957584 17.740307172661172 20.499941743330478 20.391765706829663 16.021754687041422 13.550981509246999 14.580043181744509 17.006724166115948 17.60508622990426 16.63803817947484 17.66569551352191 18.614965895107307 18.203022149964514 17.311015415429505 16.93416095446681 15.969441150276372 16.552373221234994 15.284889642652763 15.930763846090477 17.24075230113791 17.825467978320216 18.758354217820777 19.320658692239544 17.77078369128788 15.086221523286778 14.310608804972356 16.74704369671657 18.677598893658818 19.596774523869666 20.979960187188436 20.4886490902539 20.098905158411576 19.623399299638017 19.256820046654546 16.252968128222083 16.458550242248062 19.235417820074545 19.81410936698195 19.612880526300067 21.33350595307251 20.588287916366955 18.710931292364098 16.109616955917435 15.555383336407012 17.39114681481736 17.30026765407661 17.46874722205315 17.645874219866567 19.067658880863277 18.35054632282186 17.477576245483565 17.765339214530357 18.643108385334987 18.625115686113666 17.208870546334424 16.220366098670585 15.758519250706694 16.887653948108976 16.440154766117008 16.884658202907843 14.958775552938596 14.936897832156374 17.43005793093992 19.328107778560184 19.19689859184819 19.387420666412453 18.896151979489563 18.68277112012301 18.260911920603743 19.255662946743673 19.064373158986736 17.887646110574693 16.16115460046416 16.628512537201576 18.424354801920746 18.52624463760389 16.92253595091299 14.558383613385296 14.646979710601473 18.42776572665494 19.75632541379736 18.031995024749587 15.566351012484834 15.233420276524992 15.342205914493595 15.696223029140086 17.469781130309094 17.207520732664648 18.710784433143353 18.28054379909534 15.628195432981064 15.376795319977466 16.179553360658247 18.320621606474244 17.158325817804947 15.755251022808807 16.39353831649951 16.359805171301897 17.35746779469728 17.718034167428375 18.676155528381354 16.75237125462056 16.69773618729593 18.836150114831458 19.34433981005759 19.944406474118523 20.21704220572917 18.900947000698384 17.16095311926758 16.533118931102027 14.599308909444336 16.45649761821984 17.605888998589776 17.63802033814086 17.514823779569976 17.523270641870877 18.114997141827153 16.621767909031515 17.473399338885013 17.01497930039296 17.385429806576237 17.18269841646889 20.0539925899741 22.18334068061619 20.058813220361483 19.801790510623587 18.567126452374364 15.703496428414109 17.03926444913396 19.489274403301817 19.025701260264878 15.295997938854306 14.759719023151117 15.482548229643873 16.161861402352145 16.57406018599114 15.97473379962125 16.33541662641679 20.005235079449342 19.496021328242957 18.798560295382202 17.939788615411256 16.524183746535392 15.503203074178456 17.17974114550386 18.099445329944185 19.46753752326872 16.952676608976944 16.46037746367291 16.907546827743374 16.105562060617693 16.22443278854147 17.78018531478115 16.075340538240287 15.144785403540146 16.484220989409405 19.390301988231013 20.677080953487025 19.975617654372584 19.949951573786915 19.2627837325423 15.420006612294433 15.18901522216416 15.598830364645574 13.634677778753337 15.445304820146493 17.232087612634444 16.626950901520765 18.356436784141177 18.73112283047355 17.126479372894146 15.742193228371526 17.536910973570503 18.877749266903592 18.147517965914137 16.204614237894152 17.478969790692656 19.640155093725745 21.62878590282232 22.422232856377146 19.677467740081667 17.939450992466107 17.33534222289253 18.577724547260075 16.77679359887128 16.06190152648043 15.964122422090163 18.24198941697491 20.126129332342927 20.76047953889407 20.906966244430734 20.624138910340193 19.27818329225068 18.79243364869385 16.523188872521498 14.994352768433755 17.321231512650876 19.681926132331476 17.09438972341889 17.053018507529753 17.5604427958936 17.635000802802445 19.196329935051295 19.345370985819674 16.2240383385519 13.666902669368984 15.183130798394666 16.9139660288324 17.615096187152577 16.74322801851823 17.064951701447452 16.639474665965842 16.208447141072163 17.21319583775251 16.973185750397473 14.000925995276708 13.583025825983064 13.960284259151859 15.560749068957898 16.979020891807323 15.794922006108148 15.84765718432208 16.79978348314137 16.90570277731259 15.059839623398505 15.36848095698041 16.949197150624645 19.62840006350097 19.546232238292497 19.456934763796188 18.395240057903017 18.540399629179454 17.566614586382894 17.585974974452828 16.5154183481203 17.325054173977602 18.673099561326406 18.166760282361807 18.254038334839347 19.61346093912624 16.651025115526867 15.051717272917791 15.618661509068838 17.59028160394267 18.09645479433763 16.455791508326477 16.593560217659764 17.038131126883577 18.74069761430677 17.840510524181695 16.18182631037105 16.48622003381072 17.169944286042753 16.904052747284187 15.75910573432744 15.17862077997756 17.55539293013293 18.643298626789157 17.110819051943363 16.54842816028314 13.665562683067161 12.769723363942934 14.228775377234898 16.92517882272885 18.806711334398884 18.320824724570834 17.876597157727552 17.920238183290397 18.248029323125404 20.870743500918763 20.966784670502136 19.723058681260834 18.3718277460878 18.407178378642723 19.79848283720098 19.77303939912213 17.85929301690938 14.340681910612789 13.062871463018189 16.316273316541817 17.610814511387254 17.39216982858075 17.361804416024405 16.563095700882116 16.660950105810464 17.94435980591411 18.27941215179691 16.580650583895252 17.739873105651572 17.839607922169243 17.816055520801054 18.017395373960913 16.57397194554405 17.427083193270583 16.105050177901585 16.48267159227987 16.291273295314998 15.68962848391915 16.312458059134375 18.387205372957858 18.81238626467207 17.7406965877619 17.587384561179782 19.201081863459457 18.39278094039555 16.867074449988667 17.666338901803023 16.540673467651683 16.46971188099071 17.12669264323218 15.359221277425762 16.0296553592398 17.245345873358296 16.773843864077058 17.26169904219577 17.762537665856826 17.308359395706958 16.073410646981575 16.864807892132717 16.81953822256022 17.869818884672263 18.45962716319259 20.342403372397467 21.090663760532717 19.362354873902813 19.978895966951104 18.2245141399037 16.361162216098897 17.32968767300225 19.312160398255717 18.934633541907356 16.26707385532615 16.646841043476904 16.83157685753362 15.906104289751859 17.232250733082697 15.543257280896663 14.817441179904115 17.27629741394003 15.972700144701705 17.043698852363587 17.64927316984826 16.81150425621675 16.309335192264825 17.756830875508168 18.629657348493865 20.97585545946303 19.48303243598186 16.54144412045559 15.309827517324484 13.03385074475123 13.850242594906886 16.823384528131278 15.49193332518