# vtk DataFile Version 2.0
Ocean Simulation Step
ASCII
DATASET STRUCTURED_POINTS
DIMENSIONS 200 200 1
ORIGIN 0 0 0
SPACING 1 1 1
POINT_DATA 40000
SCALARS Temperature float 1
LOOKUP_TABLE default
13.68670425183198 12.873847198284762 14.131976546808719 15.676636351892459 15.223077656706218 15.107475619030021 14.271208110110464 15.819579456633315 18.401694056777135 17.051175755013855 15.32821784596746 14.922322065209121 16.577367891030406 18.145248893469397 18.27257933923083 19.413487334132892 18.798573867807207 18.70763339704015 20.061238394673907 21.024296382483463 19.17824571878417 16.024490855533703 13.481630469566817 13.059279460356127 13.75860784971603 14.289734849593582 14.73640705980759 14.544650913963883 17.418160640000877 20.117955484867796 19.71827368081418 18.314835809980945 19.250404836071457 20.60521560079674 20.39007312339347 18.23523807144199 17.01082643479473 19.2527270974632 18.513562284052067 19.48458416772368 19.825303439427422 20.60696843336174 20.08205006213632 18.829695595463257 20.09311859558825 20.826764370629746 18.347558481841087 16.170744889048912 16.194990287013216 15.732599453629426 17.068225853067467 17.778790008954726 18.29467441324606 19.645772423429666 20.328267439669 20.95862452135756 18.24709045697638 15.356841576209 14.816876909673143 13.825686867165896 15.456320774360707 19.954316146548607 21.477995560335742 21.0317548386026 19.106868769777485 18.06889385173932 19.44876017752801 17.682364911087443 15.46564509527585 14.377719200848581 15.706781201328099 19.003109295263076 20.512773746528097 20.398219791456373 19.288603307291627 18.32754377406557 18.66574855041198 18.42594237874357 17.46937306965304 18.168158807720793 16.79829714848691 15.183087595616593 15.654351794159014 17.355399799152885 17.036958239470977 13.975087949422669 13.16334708120487 16.031578460084532 16.54109438506483 16.792026033758688 17.394620421710833 15.687333522799248 13.60311512512729 12.843404597941205 13.940495543318978 13.43089933653238 13.203592894730228 12.992505797831424 15.1554439425306 15.924482363851753 16.48161039640437 18.301342819077966 17.2798365718567 15.731238430578903 13.654321766894988 13.76667684343087 16.154411650386443 18.185316816752398 18.360267907623296 19.278926332626835 19.137711777899867 16.378694780562856 17.47165890783928 16.956772656197096 15.28083876200689 16.932735686663047 15.344275462885477 14.967834221848625 15.637539838742029 15.76135636646971 15.571708022339461 14.048772009862976 14.383264418247311 16.81523375647375 18.624177330691666 17.093032041304316 16.929037325558543 16.049000568230706 17.193814845963992 18.75616952177625 18.489223852798993 17.08580820694729 16.59174651115074 18.164764109668205 20.946724524878178 20.568441448903297 19.406105660190438 18.533097785598606 16.9524191267789 15.474419356141906 14.847145505242372 16.291163164728378 19.01066338047825 19.568569094600818 17.68273671934172 16.026482745958397 18.641435770028007 19.75797356672322 19.004747309162177 18.19919725021986 20.18966054847596 20.883226724915033 20.791330982141183 17.347973615774475 16.001499799934425 16.918951766086543 17.95426114497629 17.43257925339809 16.354871270474234 15.450753303673492 15.787826702624889 16.374072281691067 16.2304202160923 18.58169037434497 19.97500629337791 18.676826078983904 16.466266262021204 15.168772113150126 16.473328977498884 17.388497530229266 19.881615449583105 19.86106353028596 19.21875034788034 19.75776334326543 20.5732418777693 19.045880723306624 18.591361355123063 17.494201833412518 16.96380722119527 19.414472023657687 20.300530118803604 20.871123070900197 17.53120566733899 15.647276826195496 15.637208202336849 17.52808290550598 18.12363656100752 19.118197702078575 17.950364975081 16.664744643668133 14.763004030863641 14.284094578450166 16.30399432728965 16.42939380164864 17.083619761209622 16.435145146780055 17.831628675523554 18.36287408601448 18.674742583977206 17.026815141216222 14.39437365987163 13.530187199734401 15.900573672770111 18.095568945765685 17.908509116898422 17.906250317436562 16.17653739882521 17.008268856130872 18.62160866642745 16.650433973518222 15.421214624900486 15.483426676675386 16.747846887738792 16.924131207492174 16.558500547763593 19.33459768369352 19.43332960770439 18.89956494243955 19.7845459728831 21.99721676922702 20.89360992755157 16.876124932354763 14.16474313604292 13.194360792346512 13.820039875560964 15.488347498107766 15.39492975974971 14.50966173664691 14.961440307696801 16.29278989703247 17.166518958939605 17.535281062011546 20.175297026151277 22.43011535308537 22.30647094039311 20.719279796635472 18.090483993403662 20.047270063807392 20.157668206485777 20.788824370922228 19.991889180237898 20.51471222247452 21.567138638152695 21.180484086710514 20.730066482892312 19.492958951063887 16.414218766883938 15.6547719661357 17.034808931138006 17.186767678358716 18.303364503517255 19.853753866179773 20.55436982136846 21.120617506413012 19.182106636780944 19.109300875475746 17.87117414961425 16.357326893755335 15.593300115657867 15.024857925907478 16.666048139176084 19.773914467882495 20.18207202908842 18.169010958294784 16.239963580448247 15.853630367788082 17.095634929037026 15.567594831874043 14.69716160035672 14.516773000338969 16.624652831062832 20.358981839002496 20.641616957388337 20.906450051341412 21.1063013349981 21.11464026374016 21.56867993558059 20.937715151751046 20.61076963612577 20.46363137519245 19.40524690740935 17.40839078758274 17.00809741524503 16.59099349006123 15.388615049847818 13.343272079844466 13.618045254251255 15.592853432216963 15.811333079944829 16.834688313872604 17.240576384291085 17.069257380414278 15.033933681096306 14.411624538814035 16.77025342246932 16.80365873938168 16.31443088855488 14.090975220955553 14.878815053091833 14.133065203471201 15.437512771888642 17.89532763439539 16.961752308662945 15.693628867576246 14.25664442813772 14.823213594150337 16.978664417684605 20.398482866814383 20.387945910343003 19.971017108305873 20.579387416461195 18.80442797162616 18.56551986881091 16.388044375257646 14.293190926031915 16.167472481237898 15.663864261128952 15.5491118193187 15.906513396969599 16.60901073113548 15.96635604846557 13.72268934299185 12.239728027154817 14.367720711651012 18.78206298249848 19.64371905172683 18.912875558344528 16.078301067198915 15.732866365800929 17.25454667457647 16.265598524301762 15.460080947239902 15.522179907819888 16.05776365073205 18.84680902747797 19.24168163315876 19.094041582548257 16.477311751473064 13.99575014896026 13.323906840187984 15.489317577941284 18.22493797782728 20.585655714893672 19.80815391012546 17.329956400863235 17.277875338600733 20.296450140246048 19.99783644927918 18.16285251116535 17.817827476190207 19.495356310991333 19.781356283056827 19.59408430271912 16.093928259364766 15.207754153692665 16.35963291812642 18.31296026606233 19.206918535359474 18.262022135231813 18.28197550311106 18.446458670686685 17.170296423423974 16.20697833203972 17.139428249625734 18.680596361841673 18.548992858892497 16.300564435669965 14.274645791475177 15.206322440567558 17.26206399713209 20.135133519985864 19.030128471370215 18.039559728648328 18.8725274652583 18.39246386873471 16.24209273403305 17.270450958264114 18.504961075629605 18.835787362629652 19.385291469738853 19.458100330909268 20.114784924193135 19.23096918838785 17.855308819583616 16.908004723399877 16.217953236944567 14.615653119801998 15.596547356605276 15.9588859428528 16.14712487295063 15.478092211245563 15.314241158602346 17.099369827762473 16.733393856787877 17.233688449291485 16.79712848875649 16.609299017928574 15.954391397381368 17.489591559638285 16.85097114453602 17.029867002509683 15.740781769028557 17.04264954448302 18.539590491293964 18.390193783664948 18.15632544804509 15.761200012409203 17.354601301165594 19.41154313996058 17.962866487806547 16.7627331814482 17.113726743891476 17.233032196971948 15.521186091624003 14.534375865491661 16.310643339609754 16.679925146696664 17.68338023689844 19.197614414659068 20.99381028525778 20.655586780010783 17.590447582079783 14.799759818543416 13.398492602697726 14.847957054307331 16.843259161544523 16.059774623233313 15.16100455038793 13.750538528078856 13.80946619856434 15.35927560738979 16.236956567019384 18.692681517611902 22.120524584980462 23.338761287624763 22.591234366778767 19.745055752605225 20.757661531694747 21.617525082920206 21.199485119413914 19.938208010151694 18.728321756656502 19.154188014970813 19.679117596015296 19.308989269347823 18.60616723043795 16.294616461115893 15.003564807624382 16.743256079596282 17.868441502533358 17.520841621255503 18.620880213270368 19.192902379146553 19.823589164239994 17.93409346415737 17.859689375229127 17.362915045955894 16.393426832489947 15.15953352562879 14.12633744889045 14.468773380288015 15.85436342468869 16.906569978684082 15.320499225364845 15.408563728503282 17.12675002653482 18.672279336978388 16.865982495304717 16.287975911529294 15.787709998605184 15.993038462083728 19.340517164167416 18.697673789238305 17.95498574928366 19.11231761570149 20.323301107013688 21.45112614432846 21.354433144398914 20.768168789025413 19.84807907855832 19.271637563450803 18.313399725536367 18.472660598872302 16.62023586529382 14.857464772287729 14.512777499048363 16.264229644135753 16.990165884496935 17.184592914782918 18.150516870476874 17.381367381851796 18.228288775131123 17.487231295556207 16.74678329292364 17.891148598850997 16.737429165730823 16.5127073168253 14.76019498074865 15.507057381898132 13.988108699843673 14.584710880955368 15.70450323976414 15.749771477905783 16.72701756215876 17.170818306907673 18.165295402543084 19.27249149793955 21.59047973777407 20.248411553540805 18.358029572423032 19.931705473686275 19.59369247493874 19.35989655038178 17.38047204321494 14.51459889397148 15.749183826952766 17.93244895075423 17.764433669591448 18.073083798735286 18.332586747926193 17.155468155147364 15.43366505951838 12.72760916359312 14.075507233935204 18.294691825283834 20.64897483786578 19.71515954126742 17.83254156267265 17.14896495662435 17.417885608245797 16.829473629058306 16.41950887121866 16.40427013246208 15.158055418402702 16.795677877492736 17.32861324431209 17.31180310973487 15.111971127738531 12.943392347177937 13.913444090023138 18.17303801508748 19.793630793708747 20.16440860612289 18.4086841736519 17.648918365228546 19.488514405402757 20.682104890229418 19.392586169618053 18.47104149420802 18.4771774014591 17.15372189550895 17.04422879416354 17.48292514930626 15.477364189194509 15.981227488942983 15.81744729095605 17.290617679425516 19.97292068410125 20.00604276003804 18.537140000473322 18.467757453118683 18.659099764704038 19.343898926133278 19.39151467046778 19.63571998550997 19.429439168413925 18.126302149692012 15.539939608551446 16.733628558779778 19.121953790721737 20.26925215737184 17.356249555657698 15.371876081770912 15.446575808184031 13.64278477324427 12.354173967030025 14.273114438474458 16.359129866925592 16.791768119637034 16.595492829617154 15.297836449884393 15.915372932046465 17.53066041680076 18.293159600654715 18.734237703173786 17.980400887396723 14.552662528938217 15.057775008585876 16.285977531655742 18.17325092055828 18.734850908235835 18.102281227002933 18.08137627249347 15.957724743408733 15.666358565342142 15.855613470874076 15.642365194356767 15.07398909603404 16.945350406561644 17.059273299010627 17.22239250467372 15.836340754539565 16.711918809314962 17.97577580431096 18.634939588999007 17.037938308734116 13.598933529345809 14.717844571814004 17.708663613361296 17.714852194860867 18.666737781346587 19.391944509129967 18.877461400676687 16.567404183164314 14.973496303428407 15.069711169385256 15.750197979754198 17.103844864522788 18.796449458222988 19.627229709342917 19.677825922636053 17.936422615074264 15.176159412283688 14.078871369418206 16.127453484475694 19.069805452823662 17.56864770631832 15.44340837187682 14.070264120979314 14.340389897158888 16.350124621506247 16.04320215570876 18.024347974878122 21.99082168170287 23.35730343159245 23.04231246025431 21.14498122542373 21.612517135564133 21.27120245144789 19.63432521938028 18.92225447434004 18.052521847177243 16.95311150650931 17.718983431486375 18.30094318151238 18.746434608105194 17.82640374398472 15.875571257221006 16.721325137536432 19.547403898983685 19.05828551827756 18.661801379006942 17.331003856748506 16.86610238664579 15.618327981088502 16.505398628479522 16.57042458404374 16.89066785794103 15.636723056315718 13.510189804302206 13.197513853117552 14.338922170575584 15.57752762909364 13.947350570229371 14.36600930243831 16.242581875269526 18.2373338106031 17.721687442419274 16.373317491800865 15.932869200351648 15.304074911113403 18.03972815006335 17.561743000983004 16.323871462479534 17.943400469571905 18.623980404084584 19.35609647662561 19.42093069703412 18.425068373259542 17.40093162431083 16.535057891436338 17.281813028342075 18.392612235124354 17.191914653277273 16.254254832821836 17.52098363433151 19.58450615924428 18.170183791669004 16.389537358984885 16.381967139289152 16.11229671900179 17.712679689950278 18.54943360055344 18.37109303986045 17.233288702631203 15.274546698596556 15.227544027256041 15.519145553007068 17.415754750318168 16.254714189443245 15.512758031333506 14.818467437242974 14.898452782593306 16.20429067620452 18.104072733173528 18.481386752898793 18.661446065776456 20.08945360416856 18.251110641229474 15.694317338616514 17.035409415132374 16.252285398407448 17.097192190724318 17.30893240132959 15.925482896613067 16.848965821061086 17.900046345633985 16.716711161286426 18.057196442730394 18.214683381009202 17.843034251342708 15.697538947230147 13.684862780127222 15.980424240860865 19.96570632025975 21.905911939924774 21.110486157061644 19.30195676806431 18.717631479233308 18.277115146052633 18.3029994470451 18.7794246172289 18.65504159657975 17.087164338568062 18.472285741518093 18.876484093591717 17.512978162272383 16.969778057471835 14.803407736443583 15.81933613852162 18.496456612901987 18.398877101231715 18.0818740032474 17.33825670594619 18.347416661770737 20.07735641581483 18.979974343401608 18.09016897854027 18.036063744695323 19.136956553820855 16.94511709244545 16.64200152284637 17.815702663337376 16.25230029197905 17.12365278809588 16.63357540118611 17.552702346966328 19.490899223837744 19.614164911179895 16.472565419724592 15.289114473256573 16.49181108002076 19.44195879159889 21.031891707848075 20.692164630546465 20.874149375923317 19.199581166901787 17.59376344812163 18.510120318072474 19.657048484403195 19.131047311548496 15.680684417123167 14.23737008523005 14.286531241145127 13.004673542599042 13.043401549141727 15.73543362489117 17.795354770850764 17.377823775165947 17.60429791613212 15.402223744998258 15.20945034974317 16.833020087926535 18.62355065109932 20.429240031573283 19.378346254371845 14.82104312506367 13.308959436882029 14.106637379831971 17.019637739165002 20.125708411334806 20.43394102326528 19.008599433807646 15.678262380368206 15.457211464245153 16.374602973568667 17.20007527336261 16.698758779041295 17.774008799431023 17.807334749508126 15.965149034678525 15.037149080685108 14.817342979924174 15.574793999951897 18.569408857659493 18.477963351924917 14.179259164777497 13.491847909145324 15.506420030528906 16.05228788948781 17.278787434909553 17.972685963936154 17.95623338572332 17.97780016234187 18.01382572545952 17.755987256471517 18.275090670843817 19.797598599442363 19.919937395243306 18.416491860589712 17.808234543647146 17.382935233888034 16.8995973566149 16.64205704351173 17.985248094481232 19.76305465067809 16.873404473330474 14.825548500277334 14.398163017133934 15.656630494142316 16.498598548321457 14.762290103257348 16.027794940943974 21.064840060711013 23.344468652691294 22.825538305050344 21.63851692232464 22.3681804329545 22.63798754347323 21.48262629327795 20.087985814036635 18.625442509637153 16.706287486708916 16.594941955396575 16.636991293169743 17.625339765061533 18.749805770673774 17.897284815819148 18.361066733987837 19.725432170872864 17.751072817177352 15.710789325403953 14.765030135294426 16.007178743820976 15.30155771837412 15.92913193213415 16.307141128632715 17.393320414057875 17.734535124767586 15.993136534125917 16.1074139994363 17.30329254446516 16.937971124787097 14.891415419997053 15.25645284524763 16.102334280311368 16.883859907113116 17.842043821378642 16.416330771443537 14.81062386951717 13.566308093680524 15.874408362975462 16.54154033234645 15.521004386740513 17.274872539607593 18.19011674360165 20.25056021749147 21.268046375515723 20.648111669035256 18.29161752924772 15.923607774250401 16.887646863522722 18.595822145595225 18.04614327080027 17.5167743204347 18.73027379282972 20.67200670924732 19.079910843871538 15.547892666936036 14.375844240597925 15.648806909320669 17.049110433978473 17.243263127175336 17.736919352870487 17.98190077064451 16.991542594435384 16.97091840711711 16.942097197687577 18.40432622869336 17.223894142458118 14.678043177938587 13.948254555152467 15.86262741190206 17.304637655676512 18.48067863504411 17.833485684056974 16.721880977298643 17.016418118952902 15.555327477842553 13.644663697874368 14.434102477719883 15.083153615192037 17.86780160743986 18.214328778319206 17.47751816146957 17.936758034569777 17.079928556123782 16.448068687916972 18.34736614214582 17.99298589705006 18.91117989359534 17.230176637113452 15.017825566672238 15.95177427731256 19.593032546275865 21.225672738905033 20.2153209908508 17.871155876825775 17.440759397911457 16.313851426774715 15.45438348766694 16.396109205501617 17.410240401456893 17.02896642428048 18.3464235925401 17.976709207504612 16.56845778484588 17.18312687775906 15.942186142175489 16.25529340209523 16.219282121590183 15.956062646062495 16.802097835420927 17.559937867345276 19.0379976141999 19.746656758243038 17.721883865602553 16.80411806962523 17.557542115663647 19.891921694088126 19.218011737906956 18.49884791691667 18.23517743964375 16.127417127943957 17.16359759231992 16.298661618869374 16.236902924851083 16.58486705535724 18.08628236288337 16.043743216432865 14.27120871848038 15.468523659623308 17.382406271473563 20.13150836985422 20.49246765264189 20.690649901133668 18.93420218848852 19.70125476015481 20.293911028586436 18.123128248370325 16.421448445837513 14.519191879185986 13.581080145931024 14.773077452286293 15.53785748056692 16.25922902294905 17.38649606594963 17.69732239904558 17.480691564743793 18.551047354881874 17.265843874871127 15.969550227949355 16.246192748441175 19.05714329509576 21.068857870682667 19.95907759312801 16.08599553538457 13.199754687245957 13.479634340150959 16.05350461844467 18.78426564964148 18.44403446574563 16.692310114101335 15.545747739286428 17.238485578532813 17.44358689251624 18.2348988085073 18.079876473106943 18.863630553132932 18.201396089662158 15.662401413705904 16.569323198554056 15.463626650947981 15.419208123784465 18.26263543253254 19.644166489266755 15.894011129347106 14.953978905390406 15.97734290008591 15.996056532882541 17.342671390579913 18.627239557092157 18.393730494777355 18.901974301363182 19.548254561814897 19.75214625162607 20.43719561401337 21.502147783986686 21.580306640092367 20.569121743110564 20.209369380452912 20.266804943878302 19.755756632865253 19.057171988475314 19.567691634458182 19.631639249661124 17.314735542360197 16.46032834881116 16.99751307292672 17.37220301454468 15.890437219573164 14.542967753048297 16.400416041316003 20.903473530434454 22.66188517830184 21.629145818473432 21.370112701713747 21.33551920551921 21.728318813448496 20.68523202221431 18.75757084741698 18.51708997767136 17.887225345160196 18.349329112114383 18.28894471993041 19.25494801923817 19.825136401120336 20.085329310917235 19.548914713417968 17.449260932939904 14.810097623930965 13.836003746945023 14.413467646294968 16.30155868675231 16.854981619479112 17.18611298868393 17.045118955513733 17.906043065015787 18.352849033819048 17.590576023372442 17.550557239497127 18.48936629948692 16.40517415245093 14.644855667826484 15.543859399754371 17.280217840277846 17.933932335436378 18.793906649844438 17.868624452924564 16.10974634342253 14.590009601097275 16.827846216741538 18.099937863565806 17.847169356103002 20.176809177772174 20.79821393953122 21.547770490160655 21.63914079611836 20.939840885634773 17.448829947097344 15.75478636103398 17.370108176836315 18.694394023873528 18.618701678496187 19.66187421391247 20.688609398739803 20.541272831427527 18.436011819216098 15.31654663886529 14.366963565520525 15.132558310408232 16.085572430568668 16.73754720213966 17.860608874939317 17.5303460420438 16.463001639339932 16.762771539177333 17.207549059731054 17.86656773347752 16.551125946969155 14.476431266336334 14.094513909483986 15.699858296721377 16.753040346171403 17.24406096662535 16.44715030279659 17.113046929945376 18.192703510052294 17.410511199138206 15.620172338893482 16.242353943740564 17.03016376410243 19.114970962510338 19.857100435688974 19.684960282205534 18.836949118229796 16.89773520808198 16.57321856953031 17.673819426722872 17.608635934654856 19.240048771799 19.070004664799082 17.340811982824913 16.514314174446756 18.39998044109172 20.052513692155703 18.439066364166475 15.774351373933584 15.592664803147889 14.896551621531986 14.092701753396005 15.278254871348638 16.429617395396384 17.223821085186387 17.214018469422108 15.152076536814267 14.768410548620691 16.811978775854854 17.395269177215344 16.811975742270135 15.55500787773264 15.626192129200577 16.380559227819894 16.567310780728526 17.460769468036716 18.773969449206678 16.51007453486588 15.53438133114686 16.950269408988433 19.58171556288391 19.9938956571288 18.90437721909276 17.36836021103596 15.872893721384607 16.444055700175607 15.447525138283858 16.900370808614475 17.19159036292745 18.907580214779777 18.114793398093422 16.289132449891625 16.203631661984957 15.48332349138215 17.27963722613277 18.08415150824982 19.10652577907839 18.614245957123828 20.899123868543846 21.691337766167905 18.29956821680743 17.33634743506592 16.342471678006888 14.679893163609734 16.63697539537208 19.013907668909166 19.142359851299165 16.79942857387332 15.765696906536201 15.854503680641818 16.324143151604073 15.860868075363898 15.74603376121829 15.845483903400007 19.329389076034353 20.15318833242116 18.732317677566744 16.95883148472005 14.374362286322352 14.078205025260623 16.418117490146685 17.29209701539732 17.408460153823917 15.7024595542335 16.452987129314348 18.39495749082792 18.17315468885229 18.046578595158834 18.241593209404428 18.023404069670836 16.458606906726303 17.121136006006918 19.275921477601635 19.368544094861644 19.0621186703704 20.326678116572396 20.437126549088717 16.619838944011303 15.935377977670099 15.754986645036857 14.372987458989435 15.689404273745255 17.161323324245412 16.869782297025935 18.66432101314983 19.126654616358383 18.195902289277715 18.189270990806694 19.58529690136709 20.729142132198092 20.109777070611948 19.06939267056931 19.75247586710964 19.71453164788135 20.583067534347688 20.605908314411675 18.262232331335568 16.3460751780268 16.20175170637276 18.210931121013687 18.210668732986896 16.563482885242284 15.20813526198797 17.66284588879861 20.025947319673513 20.759267468781996 20.291425266909272 21.617501084297242 21.71277518999322 21.38109951316287 19.047420465173342 17.386271048518026 18.29228043693402 19.37314364451848 18.271203529482342 17.081451038447156 17.593555667393655 17.873877235607942 20.36895394331088 20.214361534338025 16.123004454456897 13.69221331552077 14.613762343644288 16.872682790711934 17.52109416681102 16.705235742600014 17.63210451601441 18.471441865965637 18.123105044244607 17.353300729853565 16.93811276759014 16.004716121784806 16.475274236524413 15.334231251691893 15.899316710360555 17.16042017399783 17.761486791232567 18.638901439599607 19.171561197108907 17.71602721209847 15.172668465868743 14.44140673353722 16.743672981844767 18.65956341723826 19.555923358636413 20.8604732134495 20.441378037253397 20.09467617457336 19.62720856520504 19.185776042596526 16.38767232814428 16.534952918616806 19.100948668198296 19.711453143698144 19.59735782716357 21.162201290108136 20.445700087487328 18.640449576070385 16.22385969713493 15.673343559865264 17.265059623002166 17.217464638841474 17.40162993554263 17.635708102409012 18.96043862506597 18.305701602134242 17.44264721642503 17.71474935806921 18.531215433846693 18.512735869944223 17.159363481571013 16.154511075197544 15.804754504051758 16.858322398088507 16.494088489066193 16.818269363266776 15.019540242794909 15.011826054247528 17.345037902517554 19.144105672712872 19.085336375587193 19.24335477022924 18.818952277331398 18.67003523713188 18.351426149033692 19.282670467450806 19.08472188220454 17.89523832276492 16.300870022791702 16.750240851086055 18.389899202798194 18.534626165935574 16.994285746952503 14.7087808735412 14.763145310699 18.293717297761308 19.61472802617221 18.0042712436119 15.683168915978444 15.295966299785682 15.374804203676433 15.751049306309497 17.368869772735973 17.215920764534882 18.583239144866482 18.17272487415737 15.742589116688066 15.46322788290446 16.24841386720787 18.173161218645046 17.11126238980139 15.826375434192327 16.348291527842118 16.369754305521937 17.285166204652235 17.743250840751195 18.60219211553818 16.826159749099222 16.750459875580795 18.74241233773083 19.32542836293933 19.84851533075936 20.05717894522282 18.77373008798354 17.132308223969694 16.511183436048125 14.754360593429876 16.439968197968405 17.550288153647212 17.648805961577505 17.531739337111233 17.509507689683787 17.975912358590147 16.635855630108708 17.4115551210782 17.062942730055017 17.434768806665414 17.34885095752717 20.066716615263786 22.01712546017763 20.03739115191065 19.70420295129875 18.44608875191468 15.811646359725316 17.068987841966138 19.387707510691442 18.934820288962214 15.459760077618064 14.879436545330313 15.529875539868357 16.151534511900618 16.540781363685795 15.983452768053489 16.36916076456006 19.78655988380339 19.407814840445024 18.73987340004643 17.886187200586185 16.47995601678272 15.560359272119696 17.15316840718515 18.10225041335609 19.33861786493092 17.043266009823746 16.490827976082546 16.87209573577253 16.106494788126742 16.251025409749417 17.67293388319027 16.139231319080242 15.243036908832087 16.56149693926728 19.359805892899008 20.591394006216735 19.988023327293494 19.942423596581722 19.193717843750186 15.583180772989214 15.27036927998393 15.564770707477651 13.791508256249388 15.472180968640481 17.175626110646988 16.66811398764748 18.25042333863661 18.65256897132077 17.16052802588481 15.89804009850571 17.557873077226894 18.871319354838292 18.18584039474246 16.36904500970292 17.520962189917025 19.562144676419543 21.489206052305317 22.255724608942803 19.7239938441489 18.013749355556175 17.425472846700934 18.475923518220387 16.806279098114945 16.088889290481198 16.059872142549033 18.242881679456847 20.05048439084534 20.69307530583081 20.83994092197199 20.55351278282548 19.277293642566857 18.73141973032454 16.571871883104574 15.15881671249365 17.34053408208948 19.536768981039398 17.21013240275707 17.120337827163496 17.642017634096504 17.774103123014424 19.198573264898954 19.240406969270595 16.24449866556092 13.810840627981007 15.173905163430325 16.815745765557473 17.498509584984166 16.78098101550736 17.0425475578648 16.647110162143754 16.264460058862465 17.146809369801684 16.88989165099593 14.14342739271906 13.723654367333653 14.071577769714608 15.556151553105583 16.909032924143336 15.905310073462434 15.942436334823894 16.798074339431118 16.831132940184556 15.125577766882557 15.40782773375827 17.015320179626304 19.55556499561052 19.567879538349867 19.463572845614173 18.469979964031534 18.524472802509795 17.645637728062535 17.619684109863723 16.62441171322822 17.339020446615958 18.639929562165836 18.244533277649314 18.312557937523913 19.48493631778539 16.754141134987943 15.173228658311979 15.651432100794082 17.495159194354784 17.960841905606557 16.46863612155929 16.577954229280984 17.088430802904234 18.629311579206814 17.81306624372222 16.27167349924599 16.529558740428197 17.187123642471832 16.959791021326478 15.863219476526167 15.317288781591964 17.51665835613427 18.561738386842624 17.179152618779543 16.53343422199445 13.773910489748847 12.885440714349654 14.34456610190224 16.950678864146923 18.718060488736715 18.281723380486124 17.896811430177394 18.005929756995386 18.395077567496788 20.789370793453937 20.875309680489146 19.63947218646676 18.38768289112367 18.418386536028425 19.672641949411627 19.672661048152808 17.849158858440433 14.48210676204221 13.228425055716077 16.23134598362669 17.592784731555767 17.46775042086066 17.35863699740181 16.585678299182113 16.6808303665711 17.845156774518255 18.16186026255005 16.693801179585957 17.760812969981476 17.82061184003978 17.732307024441855 17.874842652664626 16.60206596836249 17.313506899320476 16.14477815204384 16.421473204410955 16.227522778645504 15.689298188350365 16.316287186114508 18.291159853281954 18.775658785196313 17.77160249044693 17.635993733479804 19.09234274735128 18.35889643601205 16.981585082510207 17.640223648100704 16.59029034131769 16.46937270588666 17.065959575407593 15.502012018671193 16.122245823017174 17.221521808072502 16.89374373075609 17.350915264508753 17.750406001776028 17.25961324542176 16.124166904973173 16.826160980839923 16.821275347414907 17.787053811267032 18.456998057238152 20.275224175404315 20.98905300825436 19.4217236082027 19.857756847430682 18.172245809339586 16.43709945315718 17.342933407695984 19.176150224183086 18.790486848491245 16.315692340935442 16.57044073852284 16.7219233996971 15.966814827969037 17.13230506030304 15.583456898256255 14.913771204653953 17.173319293596002 16.1136582799911 17.091263160237048 17.61318893284442 16.804134167588384 16.31450958963141 17.680608304306425 18.668980281823885 20.832688755627707 19.41095360480203 16.62442290257158 15.363655933960713 13.217295793081258 13.995238858145548 16.768326729306835 15.58