# vtk DataFile Version 2.0
Ocean Simulation Step
ASCII
DATASET STRUCTURED_POINTS
DIMENSIONS 200 200 1
ORIGIN 0 0 0
SPACING 1 1 1
POINT_DATA 40000
SCALARS Temperature float 1
LOOKUP_TABLE default
8.589942587047842 11.589239623464028 11.855702299139063 15.828452093928112 10.16769897727856 12.195423958115288 9.937094048160468 15.530942496205853 24.794880594929037 20.439625195658515 14.52531606921127 11.807916080302883 15.801057656588895 20.890512860786593 17.94080060378929 24.20690161515594 19.179331202824454 13.718719590277638 20.38057872490087 26.252174094528172 16.399285683549696 14.792007196805756 7.880040823693753 9.741025242647783 11.864758640143979 11.910016124191326 19.303156833324156 9.770491310562324 17.95542234548741 27.064923323188587 23.174868722371244 19.81543303360988 20.21809389516872 26.29058197964163 24.72622984424562 17.164456447983042 12.886970979658884 22.343204776551595 10.856542455766018 20.67578464428963 17.729185112585807 22.21047719672647 23.364326189497167 15.332176368755174 19.240522631304916 25.388366968017824 21.105986675838118 11.666926808803172 18.94812968101146 10.626226189568184 16.068858167842503 12.736695481165631 17.705293132300493 22.15735586414951 23.86675907250476 26.098835203996522 13.912790832012087 8.60886375374095 14.983888867134148 8.256927673853868 10.97902285210632 25.65913385308752 24.732413604475326 27.31528054349215 24.21639671045374 15.89787159556676 26.30976916692799 21.923424119317826 17.506586841996526 13.014060443206734 15.889304545537644 22.134426800302386 23.458350593624456 25.155209494450826 21.045021427754307 18.467361162208615 21.429412834262695 16.200439781285716 9.602245343866622 18.528553271703363 16.96315403229381 9.87804553089579 12.567751089545883 22.331025540575787 20.54872891633842 11.459310338934573 8.169083999199822 25.045743483473732 14.598566650891557 10.941727189567223 22.479707474753535 11.871779600912106 9.708513267019216 8.261212987455817 12.25135571457411 9.353619149531282 12.124184595621731 9.642210259696528 14.362253245327016 17.868410433184074 10.95878785804393 24.615518021800266 17.69240883126774 17.760892527112276 11.78337407993385 9.915661301332928 12.689833487224586 14.980517507549939 12.58451934052787 25.34924915157407 23.298026036412185 8.934605605133617 18.18571207380751 18.558284126090665 8.681865204445728 20.59678875469467 9.619175019644283 10.674405338605636 18.900006359179294 10.611685507694197 21.095770801677734 14.71119943367543 12.457060496578464 18.829238684537575 23.152590395935505 10.521861300716921 20.78388652983669 9.505217645124345 18.267705581874363 22.56440158454556 21.774365123494356 21.709884007961506 15.136971518135915 20.991188669791242 27.515681133981975 23.952584242526257 17.60348941650763 23.74086958616956 22.051020990303293 19.529809626973964 11.136287127285112 13.423716042590586 14.990984883666124 25.805528411061097 20.39434806599873 8.39837034295605 17.99159149115034 25.044566583981037 18.456811536217074 10.099250065253194 26.26027380208186 22.670758879764524 24.274607539367754 13.750628145048049 17.031904477041596 14.83857220254154 19.934040301798763 12.798350802289448 16.96060870425727 9.659893448731173 12.028904066328222 16.621236990901824 8.567682305497963 19.14247218148554 26.018612033588457 20.483630968238586 18.643621882904252 14.184946437533409 18.898844329442372 15.68796650004256 24.789727267066535 21.456173857522792 18.113143228672733 17.092513995831567 25.251389922322826 19.018034044920864 23.802818043092994 12.692661485539194 9.656089525592867 23.506191082115574 20.081499707203413 26.825736217189462 10.874479298776139 8.322085418120777 11.59632001874125 24.473873346514736 22.53677293866544 25.13028345417856 21.954980403021562 17.523084965242187 11.325303312583657 12.170834005793544 20.332480945842477 12.979020151446846 18.077531670211883 9.516708201276384 24.724974920515262 18.279071638241394 19.633121522052104 20.44189474765993 9.121912056576498 7.985619924473946 18.07071482728051 23.09934824573253 19.77476176913416 23.039055813851267 17.28546759359068 14.559073625621567 21.002291486047962 9.976937386703884 15.921266454122891 13.315559309387824 18.17731752909386 19.880054322142843 10.248896596698383 26.42742946390772 24.714817751776174 19.436522218801528 15.696386527323371 27.293017968457356 26.95455839086652 14.224353680212252 14.363916501080164 14.65739407017224 10.208634706018415 19.077936909197312 16.663090540089357 12.060161338694675 13.80558706282508 14.403699681076873 17.86998824779119 13.36914821226433 25.007025748660876 25.711998973394362 20.63488759253107 24.818314648420184 10.211934553030318 26.0484003764733 17.494709765113136 24.90029853670995 16.03250080191397 22.01294383000005 27.283870392810716 24.76239005434064 23.88208684961259 20.647403254451795 9.342652971871896 16.873446494738282 20.052352334733875 16.046725274448505 21.903084070949877 26.56813886164918 22.8435901901656 27.23064624455383 12.562850168447 19.388481936651736 18.656924590329332 18.752170050162864 17.54407286384639 15.611773935366775 19.064275840468678 27.121515519211584 22.555457201187426 17.058520303817048 11.614426035230474 8.772619989974539 14.38609203917153 10.35105402604552 11.428983228458437 10.044907574249994 17.860799808267476 26.4450838587726 19.192309608977574 24.691438135271014 25.214624072199175 22.70163879898061 24.948916281274865 20.39859403796218 24.88559870346606 23.54411005887727 22.700722808364308 17.814064781492146 16.465738487072358 15.283004381986325 16.370294196647553 10.842382429212174 10.072235783862874 15.770254858818578 10.873846739978932 16.64604647984728 15.989618403304876 21.27490999451589 12.445179203948523 10.643679116774512 21.73510404986915 20.934948638954324 22.49398366730345 9.697881164825304 18.428113821341928 9.36366771449312 14.76960274844231 24.916648459324904 17.191888717628398 13.517329634574903 9.820271787818987 11.880492540795913 12.57203586170317 26.97599243903311 23.274717149549183 18.836260307462506 25.187947706449872 16.81412460080249 21.26530941203893 13.265541591062053 9.327575262621417 24.020414385459624 9.824244715802203 15.365433734309223 11.014089455686264 18.000581180100404 17.351831303131295 8.720003866805186 7.87700565686872 8.214419102182445 26.073949614730687 21.06766561348952 25.237880469910152 11.558958872978174 8.87654159668877 21.47409829835635 10.6516899308155 12.171077136084504 14.489613860983047 11.404709703007178 22.616532036294508 18.12463673132854 25.810856140905393 14.120137169346304 11.112533784260005 7.85212543435588 11.910986334533336 18.418476259704196 26.586412620456016 23.375108431152064 13.503123907096409 11.435693252691873 26.984135599014568 21.83236140093836 14.507130385966203 13.654135697487147 25.594835082656683 19.012518511669295 26.02718709525183 13.342557375568239 9.781285656199456 17.397380627944862 22.26954712864596 23.44762251520271 12.834032436509446 23.351664520402082 24.737030376250473 14.247911034714424 11.445704026867997 12.79298586294694 16.21785014800941 22.167958717561035 11.208822225021262 11.582703638142737 11.572479724943038 11.769749618200546 24.835928855411527 18.129464883206293 17.806032683418245 23.347431685709815 25.10763602116219 12.240082389897639 19.1937076786707 25.140012731904534 25.126100145261923 21.320628312997663 23.101415053123148 24.99030583364563 24.964010943390633 20.638945846576604 17.488918314248856 11.455513341488967 7.527166903884259 12.192743642247729 12.356175364121436 13.06927773579565 13.253608965400863 11.180395013324029 19.94550470090613 16.546198098194974 21.359430500372998 19.226752384890148 17.311556625897133 10.54291082666412 19.707700643117043 20.167099089302493 25.08560424731689 15.233812266475102 17.1228949570526 20.192425354384593 14.042438953950105 25.063611705152006 11.258259041704497 22.474256913389397 23.93678106050703 21.756686022325173 11.080304211537348 16.441426665525384 17.28883104671703 11.7341882915518 10.555370734807758 18.46020095520931 11.221537520422968 19.443124816950963 18.95366464660914 21.549441104850466 22.46272120117916 15.759345049992262 16.352699202511 9.738979377451416 16.37680244374177 17.375417037219012 11.104223962968781 20.042311158335853 10.011760793175538 10.59214245519458 12.242446611459219 15.818872083885207 14.17501684761074 22.4440904745121 26.067820124256084 27.024921422516154 15.711297690392932 18.525775074406546 26.88185814932284 24.614399412536596 24.084587132568053 12.443359661272305 19.446608815199156 20.980646501031337 16.461402135890033 19.025515126231138 15.102521364971826 9.109514829463652 20.31718523420709 18.29247107767394 9.810865869679189 15.551797444917607 17.133517780040883 26.050575006248277 18.046295106184424 17.596449020745762 19.406598759862796 14.325495043547072 13.770432054478736 14.271866965683278 14.091799131698217 11.677537148985875 18.831136514586618 11.857579804655407 16.16856720488814 21.77535174837801 26.20210696499637 12.771958841082295 21.526560919941872 17.443421454978534 9.175138116750825 24.449183506342642 16.614808546125413 13.978970953472865 16.234599437734698 20.558040105264755 25.154692539323783 24.199708747898388 25.310095033032287 19.09691789882102 24.47086050737483 16.237319944189398 24.47473392374267 15.439828052180882 12.060213444130227 9.507252331430829 17.303247073752935 17.55035253667819 19.238774706388728 25.66681024179967 14.624118500801925 22.463536352001434 19.015642956083248 11.389678583280492 25.45087434076646 14.007310226604304 22.986343119234046 10.095942070612141 18.041620445206544 8.427376214621978 12.249859910373116 14.36658467605563 13.467966578055934 22.927353341407052 16.899776163044343 23.770625706804406 19.579977040146293 26.365944451848762 21.254529436014376 14.333479841850828 22.541870291384914 25.058470791062582 25.050491857027293 20.964025391974598 9.168450038445265 9.229831488776188 25.944109541590432 21.787705711648915 19.79697000077515 23.006268129293268 13.878283574881335 23.957778366197513 9.241334083552763 9.180654166741226 14.524964890200577 24.723903770021753 15.659711319820762 18.65731601360048 16.733967403824558 16.65484241238006 16.180474152033824 12.283873566259349 18.59252393393741 8.456881447124008 14.5945709226055 10.725896516691174 19.899011488383017 9.59590104687213 9.29926368724222 8.003604658374938 25.967064723893458 22.139027045630314 23.816600226507454 16.049268771408602 14.319442161762526 22.701538726339045 26.307448175574255 16.66346744314001 19.826621083334917 21.965516741533815 11.845117906926546 15.730147443648084 16.49244727308609 10.095345647301148 20.607908917080668 11.824293723340716 11.118634499460319 23.277259875806003 23.76014616796519 17.691291010590167 21.046216567022597 23.409145140158707 24.492371615897365 17.74965596075935 22.237296431418176 15.404282828863346 25.144341717456168 9.131126185100026 17.582133067563152 21.594446673572836 24.204759911319726 17.14701306197461 9.894337901630557 16.668048462796662 7.941962022113086 6.671944845436288 9.775396477191514 11.309614235905473 14.765462541751086 12.844355733547186 9.301388952213804 10.077501033230732 16.845789668998936 18.752373565471526 17.394197244414602 24.679235035072114 9.188311587284428 19.405102495546622 18.805896148368635 25.166934788560596 21.233891388533156 14.898612776383326 19.729499168865846 13.431419789280355 14.162463774460912 14.992252014660995 13.165356498962884 9.65059284353214 19.880462806635943 12.279294845143802 20.735992438609284 13.0176333093236 18.927760365668014 21.69685263128028 21.442468058709657 13.43547295186087 6.902867964031297 10.93383360592473 23.66265684645472 14.664555811036497 24.964724433170563 24.929838906234245 25.461822369327653 15.300522099565168 11.02202886614406 10.040177282671635 15.161302348682362 10.844185054536013 18.837155768538853 21.13283615916633 23.402611606478448 23.602075901558138 10.925656217870872 9.490495477982613 13.462695249343549 25.26740478494342 22.514503075801017 14.616615760919755 16.080762325706335 9.794987259677608 22.46332545285537 14.256668019421497 20.17456585472653 26.247155669695506 21.36260409058532 25.04595073606072 19.87397757415471 23.356872678377503 19.38974099452938 11.230078712243937 15.485142139758288 20.744097370981724 11.375213261162273 18.61929957988676 20.77838274047007 23.428358495068135 20.19311070192801 13.639564070485319 9.221514448235514 25.963079485272562 20.668090184852193 26.134287797924177 18.21337867538702 12.738220127666672 11.124903427772145 19.79420267661666 13.271317197831422 21.305479193499185 13.749912106179844 9.079213871057586 8.118665473505505 8.418612757292188 17.730320475799033 9.364661115410474 10.540798360017881 13.621293367963808 23.13586891154951 19.49169131420315 12.070297776946715 21.417567607953337 12.555592628095901 24.427246837927726 18.704387442260483 12.78399590998009 22.34739114859752 18.989776894256003 15.056224823730876 16.297159365457983 10.474116996061277 14.293294367324194 11.85523317545051 17.61769921457164 19.01587192275613 16.341508460604697 14.749319483715018 20.567854555086644 26.576670029349188 15.560028029766357 13.715632024203792 19.275412007751402 10.793124597756846 16.646796589684424 22.44986242860378 25.40882421031077 12.758933465274454 8.96924906654964 9.606929053678805 13.622914333082766 22.58918542301075 14.789987234091734 20.67054133883823 15.760191164682622 10.63197157563576 10.49767007354363 21.532526231355767 16.6687219851355 18.408671365130175 26.39677276730947 21.67580874898081 8.87200651234859 24.662350441622877 10.278592869009994 10.373691447116641 20.2025550985764 14.931550064077872 16.41505431959647 23.095489684853284 9.177079700271115 18.919372366046318 17.69557707073654 19.70250238615393 12.524680724489917 9.379019156008354 20.825066236792154 23.265135668522152 24.78646661260953 24.156355838558 20.53091941457756 21.4254895273387 19.52514589748145 23.49126696824356 25.582475126910307 23.642887830101103 16.079631717309795 21.143690755637202 25.758202199185376 13.583338000896378 24.897499143406062 11.839238432798762 15.622125318690474 25.532731570771436 18.19519526975445 17.51665823096103 13.21954791672399 16.333282243580438 25.86003672609781 14.153576524793376 19.432621986474732 14.608856876438626 24.889303660283563 10.739526355652869 11.460189391846065 22.900287037349354 14.769527366744084 19.56314904968031 15.884778089257342 19.700167860587005 25.276629389272905 24.65791406040191 11.161912390352544 12.854024597631982 10.223456672142907 24.11078214628628 25.346638460385805 17.074256460395976 25.723927507297848 20.848672391215405 14.801231901489267 16.211780322813446 24.009048474603826 26.149611047607788 10.967481559436495 15.362206874404478 15.708511399503234 9.756963358495476 9.022529791305656 16.298354108171917 25.525285849176154 14.192017996134362 23.247920029674106 8.947487454102793 13.867959225918868 19.264968477877932 16.024728159353813 24.039047428515765 22.898346863145463 9.77395232610831 11.0016991109394 9.646978707193364 14.67520518943602 24.29710620892225 26.923878472670932 26.374476519840616 12.310043690051321 10.667734828951135 17.360529213078525 20.640800874843674 15.608789555804034 17.779969176256603 16.796877838755197 11.996999315670395 11.942862965314102 13.925247808179645 8.730533780981203 24.33137041513418 24.244088680364683 10.125975008388016 8.960717065858153 13.701218218923078 13.564491352814812 15.298927874606997 13.3438141944721 13.344469294139811 19.29481534555946 21.769361335115455 17.704355516746066 15.085133383429255 24.197645112017216 21.730518437189083 11.801609873244427 11.543084187546452 11.179370553639066 16.353445042284946 17.839478316513116 15.86860214114491 26.600415312648785 10.949602695508617 11.149031781423586 8.807255435052559 15.647890519941376 23.2367837703598 10.305509699153642 8.1773501685333 22.7465676061025 25.880864208694387 24.728870354860092 18.47948637825615 26.3786328879877 26.88139028277038 24.826068557604533 25.119874373751717 19.10185309966215 15.362581626807778 13.16311609005084 11.14512677374531 10.199746570311753 22.284315189740454 15.286388263441752 17.412957497014865 27.00456221404688 19.35294738994794 12.432060032023161 9.022362342311808 22.500159521911613 9.407591940260145 14.060240389581912 16.59573202755796 15.722965253661215 23.72936076166941 13.30264332977616 17.9867403939913 20.00381640767737 21.650718781155714 14.235324821736063 19.394189769687266 14.39279145882286 10.65940844055277 21.807237547048114 14.756263911686718 10.326881322909065 7.489553022503166 12.849361168439517 16.469838902013652 9.982503177476989 14.42337686678559 10.779720955577657 22.304253157819733 24.897818777042332 24.373663284785017 23.52959796801806 12.139870972934593 15.20320522934998 22.23145737984691 19.66540078775488 14.943503211991109 13.185459604674422 24.916525784204413 23.22438335483335 12.677365932273991 8.920940273185295 19.483707259129375 20.80509025188166 14.382119416140352 13.700975364959803 23.307013033326054 20.398347320024715 22.203602758775457 14.986468758518578 22.22903384521594 22.302383548154435 11.09857398834336 8.449811173090847 21.871440204965424 18.848646444913022 21.521666416712097 22.016450050465654 9.271622893372037 12.775851656720459 10.92579917558025 10.266742453518388 10.312544126901267 8.778605658829928 24.90260300300268 15.536902870311176 12.817790237261551 21.413027555762703 16.19898500451586 11.88520641163968 24.78385017186299 14.433705740215567 23.888504013564937 16.178757378635222 9.503040742734042 9.45033296313251 25.639629986539475 20.94447387876981 23.134540640668654 15.366538126352905 19.584765784681725 15.51415523344542 11.045679947965528 13.984106817290744 19.80777651645348 12.523830634035157 21.476642928752778 22.484835802716383 14.734175229390997 19.580772897020047 11.789870128366575 18.598005672094907 12.980579526149162 12.392711768278783 15.888793522182869 20.09960994683101 24.61418755103637 20.343094367838237 17.424778069272612 16.850832402305038 16.707976493506262 23.498337597009108 21.02097950406272 19.933028866476324 24.971152174821 9.705672582567303 21.614114565563938 17.311869112100567 12.364475013424826 8.517337372522952 19.644661922666824 13.298666177990967 7.782754848649557 16.411467429398503 14.936118244589077 26.487936393578483 22.219459855967177 24.51208551354162 12.761331228261295 21.368493880316564 24.214414994892696 15.635378643968826 11.044277846991804 12.01567643396024 10.648368764232195 14.15606406814909 14.066649781257158 14.308249728912237 22.281621275804603 18.714011961723152 15.842024689911177 25.112507360686948 24.34028389451973 14.471983153689768 13.669515831261593 19.66098774400632 24.367306139850342 25.80871728621133 15.659690458806374 9.481312958493854 13.684063308308218 11.651455434995723 25.061530664522415 15.757771048328639 15.465923979840237 9.279412468854174 23.324756118920877 13.059820321241329 21.503928420792317 16.862784447069057 20.837364346089267 25.389467606866393 9.326966516591707 21.55538101037129 9.54605382872964 9.116663607685627 13.526658988371208 26.18914465724331 13.609486138492901 13.299746338119899 19.195423815571534 17.282261467370763 19.39278337942985 24.100143700212897 21.932106226943457 17.8685188267959 20.42279302471267 23.422744162677354 25.2061516976931 25.180729198278982 23.21539006047627 22.420062999171385 25.743051894141328 23.77263355426471 25.900737491440307 15.88834363366055 19.830716366258326 24.628619974910652 17.756007640018506 20.06744561036639 18.164895722015537 21.040751298455017 10.132085830032434 14.711208031025862 11.290975839080634 26.134602334102066 27.164197864705148 20.702768577409703 21.504839436610357 15.842141670990049 20.043284105877195 24.236171395852406 12.94126242446411 21.646880855794723 12.814714945713737 22.983190829859186 21.856268966462537 24.969202391794077 24.07333535398362 21.115866497814554 20.2021049842493 16.734680594997183 11.323688283098017 11.957391690210128 8.668070732757679 15.032972684172728 22.73202953534393 19.798002356372283 11.13777602293261 18.094133716184803 21.79970064934481 19.197502260767696 17.50972338935414 25.887669372853317 15.19010717507376 8.838954982610776 10.68875882119159 21.98218946819711 16.25795799866524 18.903700292728736 19.97004279838967 22.385787060676435 11.955095731439744 20.04665322599247 23.224246331374562 12.381272426434647 26.67374049046072 23.758081929949647 25.143321152388477 22.12416397749446 26.166387796095133 14.67989703194026 12.767133113479323 15.778784832227462 17.980266854587597 15.781390337134894 19.09683954429342 25.052719532060376 20.4560012360944 23.14077593892509 14.943156755549952 8.20914145877579 11.896638443898802 12.660270464596772 15.119867722072692 19.38193758885021 16.212722878854688 10.62839838430176 15.161577249118311 14.464694495377392 17.04992631567478 15.255948247403548 9.168994715489015 13.718470953559196 12.680673491689692 18.395986084082246 15.95917109513448 12.019669607195937 23.825537314966084 22.696049847654685 18.466717936878315 9.941445899675685 16.145967033162634 15.779931446765124 20.48142304746656 25.838813267898814 24.22173495667442 21.49361670434335 10.97101770777369 19.13228236010785 21.930251004712282 10.309119851949948 22.30627872711617 25.797061894694398 25.55565647069152 18.408014390256056 11.511098331708862 23.802345438733294 16.86917039001546 11.195438200684698 16.264646043162013 14.235002813193342 10.540678110103608 11.200120185200113 15.535103721714265 16.46660542306306 16.665803320165168 9.306628458394634 9.23047279024815 21.706192850413544 17.842269379525145 17.25916231811607 14.871684180896683 13.042467149964432 20.23303956535968 10.738533251992903 12.894075052812743 23.802791384818605 13.605181736986289 11.497357841482838 10.275461121009648 23.450562763914053 21.258606419845762 16.60910765886848 11.323090991710814 12.607211420692929 18.88132887016607 10.465041037665678 24.286117212782475 12.63387622147408 25.49891208690087 23.816264186784988 15.230685477940876 16.816393211883895 8.05671346540319 14.150741282493938 15.241665891641416 22.76468327116904 17.13000045107368 25.281669114651674 27.592637787528403 10.124251423952966 17.77192587639553 18.368221275885684 10.403823141142936 18.462456909432714 24.388065797554706 26.06297756754327 15.013144409473105 13.83144491694503 16.05978246010656 13.339909827860767 9.438921850481679 19.291802309346338 8.735038994232971 21.824580028119502 21.27327461820397 12.413592053588356 21.120683600113814 10.107490339434158 10.054311073044687 22.243815792942332 11.799076001018438 17.20192067909034 10.300130999433602 18.171405341485038 23.086908278403776 20.872367872566194 18.66738012363829 16.47485648243732 23.01507088097228 13.719898285489576 22.28085136505497 22.88731710814582 22.6159140449954 21.465289109395847 24.686167260438815 25.863249382796493 13.972214509934794 20.23823647842506 16.307116591013404 10.288790043515625 13.548502914309667 17.809568332083224 10.021402667196176 20.833348691735022 20.227715528183076 14.582169831148718 17.81390836120333 17.28960914270814 24.040262846610496 22.298751195566204 16.889430267145357 24.724216503995624 12.630035831637592 22.56572036119132 22.240842277742754 12.78196021371339 13.418988075103826 11.369723401590186 20.978211780466832 22.062386363055996 19.909365072503196 8.877707511555085 23.710327437389846 17.25774572788536 19.70459393302612 12.233681519779386 26.186695723617888 25.49773375935055 26.616047466577868 16.937889309556404 18.66277303624793 17.471943744823374 23.55441023018051 21.091901532749738 10.477325321522725 18.847374158783378 9.528180759293626 26.702563504248655 27.17802116153414 9.940630835495314 11.961931394796148 12.904406160651801 24.171224374278918 19.14702777834353 11.858178660110132 17.241933671185063 26.081781963866657 22.224316623432248 11.390296633215286 17.01486512558699 14.344582678071264 20.964954809489758 12.175057945203061 19.19407383323482 20.04996996811996 18.891092076382083 24.100259488147493 24.409421915723073 17.389625917889955 11.523991381783087 9.41299756904094 19.52311782386103 15.596074837555351 23.13725791359361 23.64730797931847 22.09977735725697 17.596252336698765 18.909314918492353 23.24231221662814 11.831308431655751 13.10412958105017 25.600510976423802 24.830805187895905 18.691098947412076 26.337906938325627 24.935085330242185 23.290980988470068 9.565721275361316 8.748428327654103 25.10670672219157 19.83349316995908 20.061217229699526 18.18199069007937 21.712104299003798 18.46379813826635 21.49279813449274 18.65029940003679 23.375898580454468 23.22970361836255 17.9203240061966 23.952641883499293 10.886928103485943 20.026436167735735 12.716213484677771 21.912021565987974 14.30602588602012 9.503592388368926 20.5158232072527 26.68265878697689 21.22511346376255 24.276752451815486 21.254612766676836 19.884290759674297 14.398657892037791 16.924000953546432 16.601700461779277 20.204850497930344 10.697734159699184 10.546857575437475 22.766204193936527 15.858625812262401 13.49907851395106 8.848739725902469 10.51963720756152 24.832299032885008 22.899855729605658 21.667958454750288 10.913565569591357 13.684343667921938 16.441857588115415 11.266010787607092 23.654040241909136 15.222618196250874 24.82379297541227 23.639652155307544 9.814238921037267 13.94833530557409 11.185808127628379 23.779170533256686 20.010223657586682 9.538503927183841 21.010163100882885 12.133416537166296 24.68824806820562 13.15759711450952 23.07103558364185 13.623266584352853 15.942884364107124 25.19177421416376 15.034698539807822 24.71573073933393 24.912822232918423 25.847258096044456 17.224019359261387 17.871236306160345 9.321098160720663 17.91873616259021 20.212775527913838 16.2776660009095 16.72674274324251 16.655053819981966 24.46930675202955 15.957476163782767 21.6326158115916 15.409806947792474 14.909200634214555 11.077451323051685 17.225974275008458 27.2553180206083 22.32071997992509 20.8913345616379 24.004272822510572 11.676852200444626 16.10618245061449 20.009111290870653 20.49380260649057 9.023525651107985 11.370970444833874 11.904579116092279 19.542751985456672 17.824797412770433 15.58906829808897 15.281862045434117 27.508190454063776 21.785795842156332 22.895471996705773 16.864403184262272 20.868544664941112 12.712791478679009 16.252539744721595 18.562359531145248 26.091290664709497 11.153284411570148 17.326517542672125 17.030978157893333 17.479005233676148 13.945692176370299 24.3836887357054 11.839785711030848 13.138876323639618 14.691675020118428 19.202522329667204 24.571249471528844 17.64962164482753 17.683382142335976 22.864036124059613 9.859796613384292 11.116382903183943 18.659962971093602 8.259024197420548 17.356167607755026 18.960847419649646 14.462785969170929 24.689529155713316 20.265136905249456 17.187513749156736 9.670582236926466 20.438836073934592 16.94478539260333 16.551806439408445 11.409254374309555 15.757320795688559 25.782000592747323 26.5423931589271 27.81818527862638 17.04801550499773 16.44057442854133 11.863795552301653 23.233917701997807 14.193045856889233 16.58084483887993 11.709980005243425 15.11661699454798 24.075700551439667 23.080520897701785 24.862575733507704 22.310496545372896 17.818095043353832 21.55854221965356 16.00149754838533 9.482361668588904 16.33489474642379 25.22136011593048 10.014019241686396 19.214120734096312 14.232802835645607 12.578825203428488 17.6425310411971 23.303580966824615 16.877716746119418 8.66311800309501 15.548285573767261 19.30329492720564 23.983068500897243 12.152251187451148 18.49648934851623 16.142251032801926 12.614822956309277 22.163370450109177 19.568893319441884 9.471544377234887 9.279174165048707 10.645199196584924 16.15454105253268 20.320567245805588 9.572407373566245 11.229089686636758 16.03662411497276 22.64458444943811 11.809250114268163 17.0539841100559 11.253105678786445 23.480079708423474 15.215384629018455 19.45420242702351 14.10030853896064 23.279416494155203 15.16175698929403 16.75579565866637 10.937281828158723 21.083426898079676 19.302243198122017 11.481633300113376 15.077385020617442 25.382132052023675 9.993994476956884 11.32490276685501 17.64282647195191 20.064429007625222 22.765255818300567 14.349655219353863 19.75977071343282 10.64163210608789 25.482330365369037 18.306958927634422 12.036406653231456 16.255273358933984 15.539756394400126 13.458488594828902 12.504386650750774 8.955490361728696 19.890484883821266 22.159327737616422 12.02796345824138 16.500956170769218 10.762134464267728 13.197419244659494 9.266727765849584 14.192132351072981 20.611462828228586 19.94493004690175 17.56361897973668 15.159341610574971 11.489726801055031 25.699014599723974 21.78828695259036 25.223056468550975 17.101957190953037 17.172151549201594 25.71483783059978 23.04919254534587 17.512433451933678 10.606711266004314 8.003210350410441 22.49743804088864 16.948208601135764 10.30880284906873 19.552772266352495 17.50794512472367 14.390462423728291 22.31841916454337 23.832475517467028 11.180534464542013 14.39705394342888 17.421177276485583 21.742087215630058 25.714212736977593 12.201868839805359 25.04481591036926 10.7114726852974 21.772719437757424 18.105713904534355 15.773086066390201 14.782120094043838 23.576165810896068 16.923875478024478 17.225752596258868 14.701743701842602 22.92025510798836 21.91791566696954 10.476886018650594 18.67956341918791 12.319093215448618 17.904337174159423 19.32729442209464 10.386912531713687 11.67914722925074 22.79938090461013 10.382708987079774 12.584188515163529 17.71430327004884 19.87984127944904 13.310534532518425 20.076664106210387 14.191951172459774 25.181286243069103 17.222858004000887 22.86516378251813 24.57097667041437 12.73988776046605 24.93478775865486 20.123819886659867 12.105928590188293 15.945179135934998 25.30725035889777 25.793651172628586 12.985158477020112 21.228476823206233 24.988234303454846 9.50421565100276 22.10442556630577 13.718052251705592 11.477774416221783 24.031070238491218 8.62650066821706 13.814278924685384 19.96699989761474 16.363183356981622 16.834339335100353 24.980605613433372 11.932442443123952 26.41939655315531 22.8965601707213 12.75775029766177 14.32666919527365 7.878927588814121 10.651028861574787 18.315181399675954 11.740882850235348 8.637604409955093 14.08395516311769 18.6117426629