# vtk DataFile Version 2.0
Ocean Simulation Step
ASCII
DATASET STRUCTURED_POINTS
DIMENSIONS 200 200 1
ORIGIN 0 0 0
SPACING 1 1 1
POINT_DATA 40000
SCALARS Temperature float 1
LOOKUP_TABLE default
14.745920044925468 14.057541862092519 14.777406345642955 15.696547146462107 15.789202274952808 15.533815453997661 15.20927811402491 15.924925534148613 16.962383475993928 16.53150204143384 15.718288991160478 15.685425246506126 16.57334004803097 17.469540721057808 17.939887926180006 18.466276629148865 18.619256602843205 19.02254462669933 19.76373626065119 20.08368123905119 18.9930145059208 16.886417143339315 15.00384363236557 14.284375723633271 14.491508094255547 14.793202422012383 15.017412057269693 15.517288954862595 17.048486154888476 18.420253712571427 18.527778785834954 18.15006770750116 18.727163603110895 19.542518945974983 19.56509069292736 18.682485721916045 18.27228258630631 19.174276937182952 19.480728781991182 19.775215048775983 19.914533184013212 19.87267155519419 19.432742947405345 19.06670909527157 19.448655362049454 19.378860560593672 17.992259077059177 16.654036454744226 16.26776758412432 16.421688711300195 17.207338859366356 17.875410559118095 18.32242342095348 18.999817178671798 19.491592827665105 19.6562181246051 18.40534715831027 16.625294066200937 15.569319838732671 15.138416794039397 16.259067198038196 18.552845434724208 19.73050960439812 19.36623365170756 18.307675600702872 17.837573299777993 17.97946331839855 16.987618884758145 15.644654155045522 15.118901096294485 16.080909210632974 18.073162208664442 19.22196465083785 19.193263547353535 18.633203856770336 18.21104236052533 18.41815399694984 18.62402631106372 18.442419083139796 18.18578822333123 17.24045293140602 16.41420908801592 16.448670267184983 16.811061002696825 16.30437469333165 14.846235490833285 14.41245830247762 15.529016258082 16.53742937971506 17.1005580920557 17.07237183222687 16.079753277752815 14.828432035292476 14.287180001659094 14.438621141773833 14.16127499412258 13.93158055599165 14.161472736957805 15.234964930813723 15.973789610200411 16.653807027602856 17.242477173641884 16.725530901191068 15.712785693137088 14.823017863939498 15.301005161100003 17.029665073774847 18.45335913972131 18.702604646485952 18.687564450666656 18.383106699953096 17.504247395275193 17.541538738879183 17.17735663304062 16.564057534493656 16.861850903551936 16.49433985327924 16.084931925021763 16.015951526343734 15.924906244281246 15.33851750590712 14.588929626273647 14.953313693074863 16.455926273159754 17.710292031844148 17.58476338772235 17.168469782118134 16.909549443665494 17.354951479280018 17.936092704706816 17.66764129571343 16.89530412020035 16.764300298607814 17.70183591733074 19.101276494741256 19.30471130723212 18.659260951930605 17.611979584733717 16.36675198876789 15.551852833135783 15.69248813522254 16.988147246820997 18.581251308940356 18.768511646516234 17.91430584937223 17.568090062591722 18.609776971257904 19.278396970479108 19.21641106066368 19.024122253873436 19.45292301358886 19.811864168827487 19.455917736417828 17.772342341862966 16.787156841541705 17.1260239754488 17.67278489262113 17.541549297059372 16.88667111243233 16.425227616364733 16.652329212076836 17.19318226198535 17.74001121367351 18.751070398098832 19.184266777244833 18.336873862422998 16.856888399840997 15.985939785624378 16.483993900939144 17.462282443717026 18.733904296120752 19.03156518358587 18.88701774285301 19.121887992619694 19.22210086570191 18.556442687979164 18.115820149688503 17.82785604872173 17.906009824718968 18.8874264922647 19.60824526224505 19.58067193606249 18.10815979428202 16.824547347997605 16.47890209141329 16.9956441876968 17.414425674839475 17.82390036034503 17.459334772479412 16.718749317766154 15.693912826823356 15.324865570421355 16.02399214313316 16.50133660022331 16.868029284132945 16.92937426154348 17.427637833394034 17.92180758960627 17.897063915128943 16.603709576808534 15.273454962922871 14.77411527592781 15.791921469083977 17.000301583637444 17.239053350091215 16.91520313080562 16.2692724546924 16.81430517716299 17.629501731959408 16.99237123416241 16.18610670870445 16.1388296770185 16.64381437319885 16.862431147426403 17.08890165346169 18.0558338690508 18.50206608961704 18.884947988031016 19.76350790997473 20.519789438072973 19.58402127588379 17.129523431835132 14.915060759399388 14.00367789194556 14.419430889370652 15.212556809761834 15.300748273643114 15.113852432423931 15.573477010499047 16.49577259478501 17.216488450270678 17.880063846334114 19.455754230703285 21.05103097486336 21.349203878467076 20.378423901129867 19.329116851505052 19.81081024006088 20.15181323628793 20.29112447191493 20.08736805632277 20.091596236096798 20.206516287043105 20.074725170093583 19.844805595332154 19.008145562648647 17.33541666051406 16.37375193465668 16.67061742669215 17.195544560109973 17.9610415525767 18.839262461181438 19.42771001736971 19.697606640087894 19.217628654243487 18.806844067709566 17.771624421384388 16.471152971578366 15.561101322121358 15.238755816155162 16.2705718552763 18.103233221893245 18.797988872647746 18.010923752796987 17.0668902008883 16.93962112414019 17.234021246787176 16.436676622462134 15.552075620519764 15.426465547642467 16.682236313912046 18.795350121507287 19.696453786073114 19.860363797158865 19.956382400959026 20.10310797255569 20.36319011794944 20.23695417451768 19.86014172123593 19.39730304315294 18.485833490935715 17.464806447990675 17.026235651214108 16.563783021263266 15.630927380507714 14.613194507094615 14.749180286042757 15.730537410636206 16.384758602621687 16.936864070203203 17.07777903839672 16.66045441387304 15.70515478696513 15.342459141265557 15.87604533278904 15.795403212100817 15.330141443627461 14.710377751716678 14.959152423019436 15.085353497481009 15.789515708095468 16.70677545455989 16.53832974339529 15.915885605290692 15.411727790426305 15.963285334406677 17.570483752322126 19.284317942409317 19.594393549723044 19.406743008195672 19.318023089905452 18.551980029657415 17.986472279319898 16.810497101219408 15.73800441964435 16.08747683965781 16.212929266441712 16.182158250701185 16.384042507399325 16.464967865759384 15.793168457850951 14.527314025426431 14.029826238818051 15.504476248817094 17.826932202393753 18.7253335139944 18.25789443382811 17.14942048313488 16.89010018772753 17.215778609315553 16.894787233458775 16.368811004755152 16.299581432762587 16.908521047115347 18.262132924964913 18.708632919145337 18.163491976454598 16.64796636974417 15.125092718713878 14.857692634812699 16.140825585120783 17.908980981109064 19.199490730128765 18.973040074498172 18.090158260369346 18.18771794569302 19.244003242040687 19.350413261601464 18.74914739240451 18.52746351426152 18.899657333829886 19.085031571498575 18.588540248732986 16.940934736437722 16.221417080362833 16.715727157022798 17.781673624067917 18.423142726813662 18.167512772509276 17.75103714422615 17.604021191530872 17.43329733822191 17.504289028940573 18.193330973470378 18.777416614890846 18.33272076921145 16.923238538626038 15.814439533209175 16.33548768386701 17.739486952206477 18.98249232940684 18.645196483209528 18.014018484494468 17.920943203793872 17.46830067461324 16.725225003705802 17.019042688696057 17.638987643866656 18.048439479649616 18.53564287766342 18.74093800173353 18.860453736817384 18.33406022273477 17.632856281471312 17.15739549285816 16.71565683258288 16.03519374951115 16.179592236460085 16.409215376727992 16.521295416076256 16.278591131508904 16.22363933923065 16.69159933931872 16.64588994907629 16.70493487413567 16.634624830352582 16.68040690738401 16.775077040960117 17.15186874917971 16.564204222706003 16.3453378845136 15.895226127770778 16.642377025415076 17.662474122665532 17.905403418790073 17.33594738777568 16.289768487378286 16.809149471546128 17.829510566415905 17.557251543930494 17.127570719445995 17.14551148088601 17.05911319389733 16.36634399598178 15.988744024310403 16.66074563988989 17.30499403056442 18.137936566271883 19.273736018165103 20.13555608888573 19.56608263490682 17.486824132729012 15.36526441568078 14.467382319768376 15.192146362648868 16.244344830808856 16.002815381969526 15.195056232243983 14.689625560697587 15.046088196090148 15.989977526586939 17.01849007055409 18.997874644234184 21.315364120142394 22.292558867580116 21.72515771295044 20.564424541944426 20.69960976692453 20.89663330012572 20.555550735647202 19.832276470689298 19.274249077646658 19.19285740706584 19.2831415460066 19.116891066720083 18.43402594719828 17.078227143931446 16.27879725243326 16.874766668175486 17.713433012384126 18.101536327158943 18.561713359265863 18.819998903721757 18.808837717687663 18.08874243833722 17.740269882095276 17.207538585356303 16.41853658515252 15.486528734400087 14.79965606048445 15.164531251224563 16.26380330340445 16.77393792569079 16.157648194181142 15.998997426903724 16.740946914345393 17.4474535203058 16.886684094138207 16.146499865540967 15.865164691004392 16.556715769232206 18.228634944507895 18.656121721764812 18.627714975697792 19.207175077871216 19.944817414351675 20.55765802455268 20.55426846614433 20.05281170598807 19.326383071064406 18.56423213123095 17.979114707766897 17.66268238807 16.77587451709809 15.8090741967303 15.574497415560824 16.260465951945246 16.752709691806153 16.862185755504143 17.13682877486033 17.214891001719845 17.39154607961371 17.079700432525627 16.81587907640672 16.922209146544485 16.43459025006239 15.919289066942355 15.335492265062486 15.412966689896454 15.060515092604573 15.22361529702791 15.751895450779726 16.009221347870852 16.380751789043792 16.816860498502717 17.54442272206373 18.661188240133743 19.803091237756696 19.43256519766316 18.67447260199867 18.81239774693536 18.557304295432218 18.1786672182285 17.061650952681287 15.898643982364018 16.275162281120004 16.96649538351506 17.1460461902435 17.445724566766852 17.47053974535438 16.699454021823914 15.236101915909819 14.210698706770401 15.459799085797847 18.124185413757182 19.654191700008628 19.313674350998603 18.097190261594157 17.466450759449685 17.359196920865788 17.056200147524983 16.78269363856394 16.621033347529263 16.568354433060737 17.419778606567277 17.795071818232167 17.29811590325955 15.939015831685591 14.690912172711249 15.142122836251824 17.079206997953783 18.538038977097017 19.07979070891527 18.607395741988835 18.33227608235215 18.965958955501026 19.50085731362452 19.11991189843076 18.5685648887029 18.34187478764528 17.955059599503993 17.774072846603293 17.510535992835713 16.45957865204773 16.22542143862306 16.558036167017693 17.651830646881518 18.849565284839773 18.914979996678838 18.14443912035067 17.769193542177494 17.932077799074932 18.528794745051712 19.145535777335038 19.44395219397826 19.093816170975618 17.88786269977755 16.77622263387273 17.246930857575364 18.416840927996567 18.820504677583244 17.510175083387484 16.25680108827523 15.738637652311636 14.953139167062634 14.542387409726883 15.519529910886739 16.728878481616995 17.210903732506175 17.225064706421453 16.817306388000322 17.000978902669843 17.594137983363314 18.096568230063667 18.22492496688839 17.3714879061821 15.686636629913004 15.318155441859814 15.992733160930925 17.144410587545277 17.841315592113933 17.830439826666534 17.47210101341105 16.51698506423908 16.193321015502548 16.22003212371094 16.25801257324904 16.314908816092448 16.945265565719854 16.93548370093117 16.72662081738334 16.148101442364315 16.531022658248858 17.39254767213141 17.884254025476476 17.07923209158167 15.462379139651208 15.65278619805065 16.92691412797175 17.40881324606363 17.824799813070165 18.15772204303657 17.869433408539194 16.906681340001427 16.206601670983677 16.355026536691064 16.979341233258847 18.004020280297052 19.00646465354365 19.458449057764476 19.06434568190116 17.670454107261715 16.055493302728333 15.462014852410697 16.43251148755069 17.53436302385243 16.834954955210215 15.531830531945282 14.763001845225695 15.027997926938928 15.861914311932416 16.509016579519127 18.346961458647108 21.065686370600396 22.515056277260438 22.343414759958062 21.460564617920365 21.389378335693795 21.20242075613437 20.377374437087347 19.407408718281854 18.52031108687645 17.950934247850036 18.035843654663232 18.222848573057583 18.216598598335807 17.614077581541316 16.955675678931847 17.44600977372943 18.360328114992623 18.25248920938316 17.852538904430094 17.39892875977838 17.14972511073617 16.64860365413795 16.711896905976026 16.743154487073515 16.594414530503723 15.85446801245775 14.853772087306654 14.75252325093858 15.427402430766934 15.724970276491886 15.14475951543344 15.339065065681963 16.41185000281358 17.39527204814208 17.260544379845395 16.471370595042206 15.85084268006657 15.934552629830971 17.191815720749634 17.498745959844463 17.387947590344435 18.18182574830301 19.06073561836247 19.817451928595364 19.947890484307994 19.312684005679795 18.272162089262917 17.495402968972783 17.56204379506588 17.851048060136343 17.33149648049258 16.88034198917943 17.366405732689902 18.16442745288169 17.73746700489605 16.75078595169246 16.42783493766753 16.621691029416656 17.332108883717762 17.681869935059773 17.617127409478535 17.19203990103867 16.3495483554579 16.00485246764099 16.03537033061882 16.477520819280066 15.963906365059028 15.347657315849421 15.188708736330518 15.623241668633227 16.54944319528582 17.505396460592753 18.015358531756142 18.445988438737764 18.882304062771283 18.003296785981508 16.864708341992213 16.975984819787097 17.099318062908516 17.48000144343844 17.26592832156047 16.653499421845208 16.9114877657575 17.272721098854614 17.25636789210326 17.75004892231129 17.885057634870343 17.39526804451498 16.042428552091202 15.037969292723973 16.258770554930955 18.852427731137972 20.3974942244289 20.043533506326224 18.798707883437054 18.02271240237495 17.60031861648001 17.3958695651491 17.502766166212705 17.495125238412257 17.266371354930875 17.792949186181687 17.883795750741896 17.249178362656473 16.41257041216066 15.512154674215134 15.94481760889665 17.249586899632767 17.905362473570435 18.080838444147638 18.002995099628514 18.458240596918813 19.131984200837284 18.89034596703173 18.342437639509548 18.264438930576336 18.498868318673534 17.90880639210875 17.533088386500037 17.377105450079977 16.644802863666047 16.63851729456496 16.719330258765662 17.445046300669915 18.446856012989965 18.50851151437809 17.26568666894868 16.53557398147553 17.13233183590577 18.56814468916802 19.765804413984814 20.117674493265596 19.902326487854044 18.91460827968877 18.196305446359972 18.468080685626642 18.721146929852992 18.100758205590154 16.32560125104202 15.055939483890812 14.717275781425178 14.366455760529014 14.562478869311704 15.797346946686568 16.940811804258853 17.238603962311046 17.126925907185115 16.34598494320125 16.223625659527507 17.112648164498417 18.443889948803537 19.20979023950218 18.227071182315957 15.831816381649343 14.58791016494504 15.115643118106338 16.917538010266863 18.543560145836754 18.768192116816984 17.84390002058472 16.486921139116166 16.239215074448776 16.5592831710405 16.900472818114093 17.02385579510888 17.47709623489933 17.373692106391044 16.46007617537637 15.910536235489495 15.924753914893296 16.664178940290018 17.81137795187943 17.464877389157465 15.518225405701198 14.999818381409968 15.871591038453595 16.54669593338967 17.37488991795406 17.99655258926217 18.049423296178325 17.84835119224602 17.70495247527197 17.7988962153029 18.350319754501342 19.235307766439927 19.62697527216107 19.27091070722416 18.74561898532171 18.078674107992146 17.36026786006758 17.168106456967283 17.88329325912156 18.355225560797624 17.121941921478452 15.799429217814188 15.367991217239158 15.696155617786076 15.946052130042213 15.932894656725384 17.516737758354996 20.486026083039025 22.25104383711689 22.293850278747712 21.792817837582202 21.806986912385668 21.649750121929195 20.73902806924599 19.55261272449636 18.489044691295632 17.6187065048377 17.4458022404078 17.62029844828411 18.096158968207305 18.34402777064561 18.1715306655952 18.310796412726134 18.337826518044853 17.318997415163942 16.293831016435348 15.88968556044893 16.14374596672756 16.115843116720217 16.404672147868084 16.734982443601353 17.104787738847325 16.931616199001777 16.18605584041783 16.063790749422445 16.44519014713354 16.147953742190147 15.347372083260982 15.532027773105089 16.416268451973227 17.24808851824505 17.456094803522074 16.638308112212258 15.571647816142452 15.186506141307618 16.266473705013457 16.899776965419786 17.058486155866845 18.0623250115984 19.068606489506813 20.072549624180418 20.42855486954341 19.72335132601113 18.138773085013394 17.01200647226079 17.360260399432754 18.081602740847853 18.05834663458252 18.103322225146435 18.760019775925105 19.243561610523173 18.161242014243612 16.352056108950357 15.582141096786488 15.970665000413206 16.820389300319256 17.365204613708254 17.661636652300025 17.471658736721626 16.86001604343813 16.7036265853714 16.909498540298898 17.281928991561845 16.519143747863495 15.301234759011017 14.93242931678439 15.740149979742421 16.811508292334423 17.570576720254802 17.551944497257367 17.431707284783162 17.478558014296553 16.64110015045373 15.620612457323036 15.787088554220302 16.434532243683655 17.58660969987157 17.99696542280241 17.767157132608677 17.660025596503502 17.305504566767034 17.126730048815055 17.747859292782742 18.039100951508193 18.06655670658063 17.07378027891928 16.016197306544488 16.70564992974464 18.824031189141866 20.09299408326459 19.520815844735864 18.088078737280885 17.216729588113335 16.551008746405184 16.248116888943912 16.674856663748187 17.15707867636956 17.32518173267216 17.664186066538974 17.349942000175258 16.777583507880912 16.645633920396058 16.261519106571516 16.282467997307958 16.509011980657615 16.68903197196234 17.077970596208026 17.570055943562096 18.367898524715248 18.79263386472167 18.010385295544324 17.458487386169615 17.940314735101467 18.886565555988494 18.77102631152155 18.25838509547961 17.64933376942834 16.74091832545412 16.653197309750528 16.461070085031103 16.80515669527999 17.437069166757684 17.773300220675125 16.787068164430273 15.908443513294367 16.34840717115688 17.608740329008384 19.081072995652338 19.72346024360878 19.79862169197612 19.287805269344137 19.391776018767693 19.489142060783788 18.54284514840527 17.239896976514437 15.69301619417926 14.80833577123012 15.173041352178771 15.747522035365588 16.208385403655324 16.68823616169578 17.03844172698799 17.167626255586345 17.264748090582035 16.656182653161462 16.276793317848668 16.94994008924927 18.654522311384355 19.641321160891174 18.711110859034818 16.345495675143297 14.579121160217259 14.694272289541038 16.37835225349458 17.965112450664144 18.118221971519155 17.174182034686687 16.48095651483937 16.874720772578566 17.2748637900272 17.64112620562672 17.796536295737457 17.917154280909582 17.385326776846245 16.4383847898425 16.62535026138994 16.602038860789428 17.04376800409803 18.234226065118285 18.241626282565697 16.353506652611 15.462630283144803 15.723987840972201 16.05493849212427 16.9489645007465 17.80122355317284 18.093852149008885 18.47904243792054 18.78500159808422 18.92688271081346 19.39049234045866 20.16782814342893 20.446070785477417 19.9786023906339 19.499560319985267 19.286529541648083 19.040194579478804 18.968370507234027 19.155910013578158 18.76569206169722 17.420986228700436 16.578491353246925 16.62526021229475 16.671388318300906 16.14528993876315 15.839758119578658 17.377819828193953 20.073355169746034 21.604804634257327 21.658787321633415 21.50258317931508 21.469464862709902 21.2271508544729 20.20138626484126 19.005362067640355 18.44118891570314 18.093412470012357 17.94510624302911 17.98052941451214 18.48616274614293 18.984043627419368 19.229051749462656 18.827356179974146 17.473162719306607 15.812522173334173 15.096315118983235 15.429671405730812 16.218045268149538 16.567115234490846 16.92661845915748 17.223482175289867 17.56546076680402 17.57000030721144 17.109842409744893 16.88957087831144 16.939614520704264 16.21018221863698 15.56808990169387 16.002763842655433 16.924579491818076 17.675948576495013 17.969542064783884 17.187448497970653 15.917990469605831 15.40058147925321 16.520678525698035 17.597701404694185 18.202721602505264 19.30214921440654 20.030881704058398 20.565001422030143 20.566206662521846 19.69015407068239 17.87269181637131 16.94838425040402 17.635974730856162 18.48214109082064 18.81403114816802 19.307799350923602 19.651399146364728 19.305947191446023 17.847714489906167 16.172404176903612 15.567884212250831 15.873105582861232 16.542614641764853 17.161095987346336 17.705044239561136 17.557721865428125 17.04191469809929 17.038204058186313 17.33501980444966 17.461819901207225 16.584728559682418 15.405765240615557 15.149476713487035 15.937459326661557 16.67490722240442 16.999550370389045 16.69350950492862 16.791375151740976 17.29716913702468 17.13441013363013 16.549126437485754 16.706794654628176 17.315116508650895 18.34691788741688 18.876867986732957 18.885196312787254 18.42385288160148 17.526385841997143 17.09837387356142 17.558371726396192 18.04212200178966 18.425069301564914 17.794918926743946 16.67918534626353 16.726282798491365 18.25121337302827 19.22440244368676 18.43622001710327 16.912283310639936 16.106487470269464 15.599721683752247 15.472579532230483 16.112566875775087 16.799250786621762 17.266714759345284 17.20364533536657 16.376679940173233 16.030001039292376 16.555132170728506 16.842864112320523 16.5779081452951 16.146368792407323 16.144638239749604 16.525254186834232 17.0664057890646 17.809595208565376 18.17346744769532 17.30050407522336 16.899128969382385 17.75111742252878 18.962132188979947 19.23016678172795 18.70499540317848 17.716465138312667 16.70050881338066 16.40774882718438 16.104448436819 16.640244570308127 17.313780010705646 17.85352310109184 17.373008438690306 16.599556215663537 16.49038344927792 16.751567526276716 17.716021980011874 18.377911143415623 18.82783346246259 19.040398086541913 20.002894429444602 20.30905922302497 18.991090278662657 17.73899801664854 16.49496029629016 15.673042055599394 16.443220994649767 17.590232065107188 17.70848582881837 16.85141488107958 16.326302692945386 16.319225736455206 16.499909784505153 16.30104941195674 16.141225554897016 16.79405640615537 18.5813571035031 19.32103889608488 18.5509068414585 16.883470570904727 15.303983231268719 15.121598695503113 16.39187654694742 17.506764892335216 17.678795216019065 16.88549471491572 16.700934096915848 17.251099682457873 17.402552073478933 17.566265044780113 17.737677352548904 17.455895665239197 16.759765438564862 16.94634136133148 18.141781379279266 18.605255217456747 18.802963688453755 19.313641663876318 18.869340011110324 16.89619452517247 15.872499732023094 15.585518731876794 15.34286889245006 16.129705703978594 17.085289578278854 17.48695010580405 18.238080397630462 18.617007689008243 18.397913487158593 18.49748872478834 19.31369748021272 19.899814776026425 19.577240844395078 19.031813623202165 19.175272858652157 19.55708565814352 20.04088353740278 20.038969295047544 18.91748868431392 17.553433871881982 17.079837314137134 17.442430797824418 17.225737573149292 16.478926679640388 16.26486143439516 17.72447348804937 19.677135265316636 20.716029463870942 20.886001950791822 21.020997480249715 20.837262462492387 20.260596133772808 18.934725036385704 17.923305243404926 18.13612169640771 18.49093963326313 18.071451144833812 17.76083724780633 18.084767659484125 18.633188927465113 19.33560862543562 18.83450634112423 16.782598662868924 15.071478873520228 15.069582246723957 16.025977720424194 16.752106150807865 16.90451555276296 17.23332605010699 17.477141287934383 17.491127786309786 17.318154477345907 16.849199424291943 16.219825419705305 16.03077992021185 15.66581558190982 15.822159849440476 16.5516107348188 17.167412463902146 17.689081379440037 17.889396348079 17.1106310010943 15.829674120937042 15.55350768981191 16.84427334872102 18.31306636487405 19.156444513225974 19.846531029304384 19.932440596985618 19.85124950874148 19.498848708353133 18.75868395409484 17.45164796199461 17.25213435772567 18.24653691076544 18.91712005937937 19.234817296298996 19.670885273846558 19.20449185355721 18.119264304938028 16.938753126898675 16.402036910217245 16.528120803133177 16.617423870247485 16.932296174322023 17.454909477883366 18.053403418751916 17.83257881020519 17.30094774202323 17.345608282718846 17.68500133888059 17.624703241278347 16.815435149863188 16.05586595479871 16.14440938665649 16.71139729593926 16.78217699087819 16.50179160535342 15.625324834764898 15.588668496149225 16.682869936689695 17.70443109278432 18.015437097531866 18.115167828173842 18.224992303281017 18.57753282424026 18.916408318618295 19.329499759017565 19.065512377918648 18.14093136794058 17.42327530553477 17.629068415441388 18.248520390660318 18.376554258890696 17.385879094868105 15.92513387900734 15.774145097345343 17.36489275446427 18.404564230564308 17.858164082510296 16.66599540370626 16.008087893804785 15.857685177468097 16.153253820341412 16.808469814277956 17.192451708785857 17.687663803956703 17.457082298356838 16.555097352076807 16.238057280795935 16.58268069355684 17.062777095423726 16.700414914850885 16.19493357415575 16.141216740346767 16.34381961371534 16.92873261012913 17.70088939073664 18.069781333135538 17.431400620773147 17.330561062389688 18.1939411140221 18.859375964954953 18.999939537928462 18.747419325299045 17.86472159726199 16.9382963204535 16.461615448469214 15.974064880828399 16.537047589150212 17.249640512986073 17.63182951055709 17.568534371786757 17.304229665160385 17.09278245832237 16.785794953668457 17.148215257092858 17.428850955209366 17.86902647968404 18.48881131706156 19.87830138255513 20.578187734303775 19.701131759535926 18.829583171523467 17.63486359743021 16.604779071430745 17.192689368509708 18.26416507979321 18.009059152412274 16.56167697352676 15.89075340223549 15.956409727339189 16.199919914123697 16.32312949284905 16.140852454307655 16.61695078358221 18.14453025925933 18.55674970555132 18.21649141101019 17.384120547159707 16.333767124201007 16.028442132094675 16.9710807812304 17.99875377759899 18.482150687687675 17.609911245287467 16.859222970310906 16.621892099483105 16.23800061240603 16.445485963437253 16.988601018007266 16.583190472862753 16.185941690871857 17.29698263016961 18.981926656952037 19.832797915466077 19.822478410409648 19.595470861326934 18.648894633376965 16.77615292244128 15.922285560025065 15.565376065459082 15.122835835132708 15.897547760243894 16.798968742497266 16.944030659007712 17.57765885306836 17.968466693943142 17.493554907836856 17.173539529249904 17.937717350861938 18.73089777200669 18.458070608612985 17.689661267819602 18.02562122482967 19.13223081227953 20.365826703669047 20.86862308656808 19.881239883102257 18.629214555832046 17.94950378777764 17.731718355473582 16.921931262522516 16.419051750907844 16.726811128511724 18.08739835631382 19.41042157247976 20.128128446463997 20.302290574794448 19.956198529171296 19.141782602928185 18.312146415101637 17.09108945580105 16.514750260702836 17.467243824764605 18.418653720452355 17.930820531925164 17.870213879583645 18.328254426881642 18.70755088871037 19.04381035780134 18.407815548331477 16.528522251807484 15.028791845799221 15.213758732866518 16.033474859513145 16.613627367572064 16.756925127112858 16.807045930712306 16.667145373274565 16.579879304610117 16.697780072833716 16.33489804616693 15.275036733149102 14.926525455735383 15.038992608531114 15.657839322151673 16.420004635171725 16.491828642632004 16.533078839216927 16.713589429530256 16.419670514480387 15.700360019781078 15.930614231486237 17.306778057425774 18.85869131049311 19.41421678711214 19.409128574956867 18.98534764274256 18.69774263848269 18.313926622152476 17.97855750872029 17.48663934461607 17.66577033724187 18.336982084878112 18.49983040296654 18.498313601650008 18.49340452954948 17.31485221843421 16.212394576758626 16.10485660627382 16.735880592540965 16.88086986736586 16.4459319531405 16.550464249786447 17.182593873144988 17.797489188920352 17.549035470828375 16.91970660572757 16.914215090941244 17.245172126257472 17.218603771924123 16.64515190277762 16.389742466166794 17.268847377888278 17.883614319815234 17.41934472370114 16.455216023335332 14.837505988586985 14.22986541700312 15.278632970827479 16.914340654370157 17.88295009819302 17.95302058137334 18.108519721575306 18.664853337649596 19.349068492016922 20.184114188346282 20.053786691261152 19.1653106586283 18.52013008319856 18.47727469038928 18.835927014861255 18.817003981840806 17.690999794192287 15.70491071061621 14.763911881448916 15.939745556276643 17.29248237662903 17.725637711959454 17.436584116118922 16.90920741545453 16.829925584962048 17.170194346600596 17.38910768601376 17.32472176619975 17.70334302010245 17.57033985071214 17.2125154014372 17.00709004597726 16.66627979360671 16.628525969515483 16.269605115026273 16.063553627629954 15.820703378518768 15.729721784506816 16.343362068176887 17.563513436805966 18.226642550952135 17.95146123288222 17.918867862285584 18.330154680958113 18.1448984921714 17.655189537402343 17.433605885819123 16.8468727138737 16.560757998807574 16.7505077817354 16.578474310048026 16.90368034433451 17.380035434713385 17.67672626405607 17.81835065941114 17.55657295728954 16.956440128306955 16.49116897898191 16.668858153120308 16.867477946908018 17.459851641254495 18.412256211196798 19.60935487464461 20.029669586071986 19.41847102557322 18.837303817232588 17.72551934255005 16.940253974355905 17.365213156170203 18.103220815328392 17.784451282163218 16.677686444304655 16.27818844260626 16.228735112973457 16.259115031316146 16.460687391846694 15.911712056801056 15.736442610425353 16.64817279400258 16.966607743295324 17.359612443550454 17.33622388472651 16.779676820200084 16.527871177781503 17.361747967875502 18.621495852581337 19.579427567152706 18.816143088284658 17.228686178490157 15.975075190496232 14.907039412038042 15.296907101204448 16.45117234328085 16.320661475498266 16.113101873267542 18.40936139