# vtk DataFile Version 2.0
Ocean Simulation Step
ASCII
DATASET STRUCTURED_POINTS
DIMENSIONS 200 200 1
ORIGIN 0 0 0
SPACING 1 1 1
POINT_DATA 40000
SCALARS Temperature float 1
LOOKUP_TABLE default
11.546765113343652 11.689251329513297 13.047601934902664 15.717387964932065 13.19518893431634 13.950874531461196 12.240739699722758 15.579514969396287 21.48954112906947 18.298761453962012 14.971987016494898 13.418932346086716 16.39055124866519 19.49046075793655 18.278129429989075 21.559063587742962 18.97367202838131 16.953892503573282 20.284342515408742 22.996773051912406 18.64241882737423 14.869634122914857 10.87494686336521 11.379654591335301 12.70032560582885 13.420412976026192 15.962037539496807 12.447193447966857 17.83344922067475 23.373891983141956 21.63698602339302 18.763261456145795 20.073027242653495 23.022340973317494 22.296748413432248 17.696675163452703 14.851974147474712 20.38331464032616 15.4371453475232 19.502308625333203 18.955105176357627 21.694719517615752 21.45651517544577 17.404087264238598 20.21610663498267 23.212246373091517 19.200195597498286 14.610698868167486 16.949834029031695 13.718240486116422 16.574227921504825 16.266879852414743 17.895368681376997 20.79523261395254 21.8350719518372 23.32240973930629 16.732540762869526 12.37437125174202 14.38449704929909 11.350941208355545 13.441506497764165 22.641910523661572 23.522097445619053 24.082815724865736 21.109968332540802 17.59089152007909 22.584341497333103 19.478668651179518 16.095726671699783 13.675621328325258 15.584071388192198 20.563166125325083 22.225704598758174 22.596847452905443 20.267186821469913 18.478285297813443 19.57741998730967 17.553539635838323 14.160108184683633 18.26615022293149 16.492596739398294 12.772641164313812 14.131788461293821 19.193427957635627 18.83221633314684 12.706913550872567 10.969640965635229 19.180238497000907 15.949859110256533 14.802324697613638 18.850376391752583 14.464598075743034 11.624896045559021 10.408191017533985 13.217381483592183 11.74380434812547 12.51102384774936 11.056300624492083 15.15823445739596 16.353131485763775 14.766971630889396 20.727866899760024 17.910142980252733 16.39499856735428 12.433914275971807 11.630843853104318 14.463821695856623 16.888715339811434 16.4427921849519 21.312713748276558 21.13420771793032 13.19574406918022 17.701534579560786 17.243771811115337 12.413125884381 18.340943089502318 12.673380375889785 13.036279556751321 16.213569349947985 14.36541714134281 17.36059786730819 13.955932942418269 13.591682627080566 17.704721072799682 20.662848608002196 14.76148938064513 17.839643909420897 13.69717261203899 17.31469147686479 20.527275854157555 20.22989097958339 18.56872520255114 16.32476134068269 19.273322618152807 24.364521472875197 22.243104560016445 19.44483154641309 20.690835306600526 19.06169418954269 16.68049897435422 13.337755150238674 14.662084926998032 18.2346525706577 21.8323396373126 18.461444446822963 12.53273015061577 18.74210514054257 21.545429344025898 18.636246861743743 15.190451795329341 22.503175944879487 22.117841212194293 22.818416913276153 16.020456272959724 15.634611176241147 16.37588838869439 18.551831132588894 16.144771186552635 15.851871560226876 13.207475992674292 14.072490351934041 15.783387171615098 12.847208121140978 18.695298519703904 22.310150578646763 19.66115522131947 16.878106253872566 14.477764562434455 17.40354274364153 16.76957516483327 22.116646137305864 20.767086050057806 18.95030529972431 19.301696207873313 22.809119500620238 19.353681344412085 20.298147403211303 15.968172176295154 13.93497284846932 20.97628378398071 20.592822533696207 23.481677587962533 15.027044690446278 12.665312532374388 13.926467178330014 19.96984839527853 19.994407730627483 22.02401570081011 19.335800087528657 16.93282284047008 13.239749236040952 12.933055046965798 17.849891616051828 15.322082360107919 17.422333473183286 14.089722158152453 19.988866546146387 18.745100360389575 19.456007062558395 18.340841882707696 12.290171388469606 11.007265371885506 16.626948660412644 20.432251318464623 18.742673716084994 20.332064361281002 16.3103750565796 16.458143762777194 19.76257006992926 14.470641082920082 14.798861423674897 14.46539107900649 17.326993282612193 17.793558215959653 14.328805498429949 22.52861257508441 21.726219660769004 18.99794588056902 18.48109341013237 24.570193472150326 23.47432017274728 15.97452924909788 13.920382056986798 13.205779973730463 12.585193563320768 16.72552809165261 15.946648921529817 13.501369142598296 14.0989947979691 15.677914773264554 17.173479691869396 16.177128548744275 21.92199337285382 24.284113436702768 22.44962113046656 22.055284357903762 14.97593318235039 21.951966626908455 19.493417733250716 22.353576517105676 18.794387944850396 21.013449541140318 24.340850423510965 23.007853575365242 22.086180192366587 20.0414480137474 13.73694779645953 15.374374290205509 18.558058637243303 16.853709524501912 19.564319215035084 22.45911569742829 22.046947994832337 23.857058921398473 17.077356157118214 19.20157698744372 18.186765997643473 16.99362988775277 16.450356525813092 15.206063697934656 17.794657705931204 23.121307975473155 21.795317530895936 17.778154687232366 14.221978773742018 12.743558859478643 16.114878331035925 13.161668164584249 13.212141960614789 12.613640481391014 16.852466534778955 23.27193798724749 20.69111696305731 22.63390482121601 23.025281844727882 22.21758280225933 23.36640512973493 21.203743219533226 22.29239561376871 22.138000547840143 21.207613518936398 17.348912612831494 16.88537085869658 16.30192559676037 15.60569238673403 11.752418228817563 11.827111984233571 15.703186964799395 13.83211531014759 16.531699462224562 17.06130469608385 18.593729840420355 13.852173267060937 12.48858220731934 19.092234975652318 18.754508007934096 19.080078244901127 12.408251278405878 15.907482768560229 12.12591483847209 14.878208126445474 20.96090408235352 17.258381187617978 15.011513720599787 12.077990007550142 13.205687366611349 15.224012832132521 23.061253412481964 21.624523050946056 20.02019342734719 22.700334490848757 18.296809481196053 19.74565379484615 15.281688030773234 11.854871554711261 18.588472491348536 13.81693947052616 14.892876656910301 14.243152383866603 16.97330689871556 16.46899771236219 11.998028778622642 9.573838936423199 11.848563898693962 21.53303104994084 20.82514249485877 21.282246980921173 13.906193329022562 12.952635732333814 18.443631635245193 14.187193188173 13.783256699644252 14.69456393411158 14.09651072883234 20.30240666267624 19.204797064593738 21.66134505943747 15.727196096929658 12.44823364844899 10.635128416867444 13.979239993086923 18.407654565679003 23.236343979606353 21.566785263939042 15.623538360151697 14.829140871483535 23.06379213916089 21.052739143038057 16.59608326154978 16.01866133353766 21.731013945152746 20.183537051129527 22.1566897125086 14.552913984879963 13.177545946466651 16.38071450903349 19.936802023637846 20.814522968575996 16.80054746233224 20.037741105210856 21.04162349634697 16.325852985565444 13.73976157086908 14.937395950629275 18.06827193925366 19.540357502250625 14.738960341788754 12.308016958013818 13.428248503827053 15.159097691737887 22.203141036997287 18.977503590536436 17.801566525203025 20.952401474980558 21.084623842082284 14.787200986287603 18.205029759498412 21.11951473109092 21.316199893103665 20.74115721707881 20.975626433581116 22.608393268553883 21.580475870229776 18.92181592308191 16.763307410072233 14.647195748234434 11.272912400063188 14.197399346599134 14.516021215190223 15.00736153956082 14.129078854771123 13.370300832776307 18.320940823612805 16.723504701366654 18.973895541539516 17.63454747620018 16.936032526960254 13.649930950923114 18.460757180657012 17.962832140993108 19.896754491910173 15.518117988770532 17.388404462069644 19.493706864105636 17.3734838818738 20.584878585852316 14.243814173213377 19.12832697259361 22.15111543632894 18.968511027166745 14.96641313742774 16.756734362949636 17.44728859367154 13.85262970436546 12.251342423604898 16.770871241830175 14.909320788870291 17.7715465019937 18.995449819397617 21.703357317399632 21.890406005449528 17.20203046045354 14.907012822518423 11.864268334666644 14.960502804196713 17.427040345461002 14.700804986459644 16.501643698904832 12.305165809071882 11.807678096315536 14.220681067648703 15.35011600669324 17.21759350924337 22.59803876591805 24.549367872750324 24.615200381554555 17.759373788099293 20.325588178783434 23.59060654199708 22.82675769710528 21.076538231823342 16.621442526767876 19.042664370150128 20.312661158419964 18.579846890223184 18.86372358607685 15.27601632454883 12.625340394151209 17.658398165569917 18.089314754938254 14.581510446662117 17.632562061746658 18.734108881368176 22.34902977534897 17.701932044057653 18.03373932059362 17.962320199006534 15.940634066925547 14.52409326462036 13.839777619446476 13.932762751212467 14.328494008943059 17.517844492540572 13.732682143501522 15.296413686845526 18.90666107833292 21.871963641241905 15.720021118495852 17.86618700784471 16.393080901087544 13.547286203810009 21.614935579802296 17.916825071530027 16.097001783078724 18.210637360980076 20.58258592665196 23.088065262308252 22.751794111402535 22.52729158897599 20.075242270794206 21.17956959202241 18.109328066996778 20.75170450707978 16.193430188110586 13.351686687396743 12.39812552708455 16.626912938620254 17.26970644885936 18.0389291366218 21.2715749860242 16.59043168705764 20.04532427413741 18.14443331601682 15.23570452496151 20.58421120128772 16.261847902082405 18.77570019198718 13.014573713099312 16.427615509511757 11.429766670000374 13.484148062986717 15.355687360583136 14.86701073532472 18.673378458264644 17.616872269523636 20.19695093570412 19.722549996448024 24.33386931634301 21.04909783817877 16.55786164838994 21.714707415873892 21.84911634943053 21.948867491861087 18.814350795855045 11.865304626405099 13.65890212161546 21.020064786648195 19.48213307943438 19.041478809275496 20.20457697990846 16.727216334436992 18.072449809035337 10.965552309006943 11.624240961491079 17.31323317816377 22.158980843438574 18.858535267341395 17.738548691614056 16.755912434713053 17.333828712040972 16.298900703600392 15.014988589342106 16.906605747845212 12.111035045314894 15.534651506507041 14.991474815072019 17.86886117900309 13.090836679191645 10.511654314866542 11.414221002514081 21.32328222756671 21.397437526619616 21.950828159495167 17.451263925538978 16.035705454500363 20.88484544634107 23.121106941388124 18.845385978494924 18.68776261969695 19.730803625308575 15.098195169418103 15.862572627939466 17.331866860393234 13.247315911144225 17.17033920199868 14.118828315794763 15.120173267442835 21.730520657609286 21.686312951962716 18.540807064493414 19.921601370422568 20.538870125659933 21.574457042057897 19.138200909330678 20.103931181092097 18.749916147231744 20.239088794381548 13.017875009543527 16.53857807108366 20.337619790707087 22.62426579961004 16.920452415089027 13.22723809489983 15.661517109439243 11.243818354299133 9.022100404516975 12.007061027650378 14.728909280892992 15.687952567809754 15.032416209864657 12.19553344261935 13.373456471347623 17.39139717248145 18.413044515830673 18.798267777083876 20.281940374869173 12.281764155077887 16.321827390048597 17.47056407184665 20.98192097430399 20.075387124886486 17.19385423692197 19.009696836851123 14.738660789515421 14.840811225351974 15.449298835974915 14.528842723104674 12.523705442008799 17.696203757601886 15.861764993777477 18.650482136499317 14.825587520305492 17.597196921799473 19.473901855232516 19.87826522263236 16.050035090491164 10.033665368180388 13.11756355831219 19.938588695975575 17.194432602913555 20.965949778317906 22.028163656439474 21.541007832804375 16.048586548622865 12.999930316643045 12.853135871480799 14.438617309927382 14.834707167421906 18.637712094738212 20.111876406732037 21.311030741828684 19.758942466593172 13.538249665282178 11.704041587938647 15.107814917952977 22.104522434726206 19.315197386530798 15.49419335020251 14.092979314528975 12.738516100015175 18.682158520976355 15.47117937239637 18.345566929442437 23.833930455739836 23.213366230638897 24.03850030487334 20.433885651814467 22.244592084401244 20.66742798735954 16.370218440561327 17.67540835708209 18.356359083064845 14.782898221330877 17.79511941017562 19.130212543522415 20.53346493781096 18.99340478089167 14.245007003982332 14.042453442783273 22.267708238201717 20.142154335657683 21.460892652888823 17.454139973408903 15.670099905626971 13.445028240182939 17.29254418286437 15.738717095982864 18.230080750039637 15.093105622987938 11.196155004217243 10.613274823361511 11.714446613492637 16.207544227770846 11.771162602294606 12.670785848853034 15.415621810563904 20.249723553028655 18.48373402548845 15.21333185375814 17.614398863266196 14.110990713792267 20.649375136150486 18.055933314523198 14.637410697062935 19.204073743124827 18.37312990516182 17.76456720803385 17.858981525887938 15.322395729277519 15.703825132486696 14.532481626164182 17.014349259707732 19.133467476170793 16.83921570810665 15.43747623572495 18.481270430153348 22.723687125155717 17.64321121549045 15.282951976369782 17.217535943965476 14.13011760578996 17.66522747981473 20.36619238997699 20.713516882947864 16.129526241006587 12.266002770550353 13.108296192724909 14.384472853226917 19.679273888329824 16.200272936445458 17.228663643041678 14.867036332997676 13.10956991537043 14.275787325077792 19.285918220429405 18.429343746839557 18.46003453376781 22.8333262101074 19.419174504472817 13.078611542219265 19.333979789607938 13.840875912947753 14.908111132594888 18.116053261812784 15.080362650060634 16.74243194712935 19.940115621068525 14.002246617005785 18.42506211606024 18.21251923519625 18.52342511306174 14.667329482908903 11.52506015073577 17.23771511891121 21.84121244621346 23.665745555059345 22.53910467179156 20.021004325061654 20.053534096772545 19.154909648277602 20.557580912825454 21.755421404654975 21.22585275931118 16.51289959218153 19.90195722006942 21.511848747818988 16.759217081701404 19.64943538725345 13.565311687756388 15.766724625664137 21.57888074308894 18.61839209467506 17.7819689208776 15.539925008908828 17.727828801998275 22.295017983116956 17.698012342926493 18.066108414844102 17.03585962442045 21.33456330038969 14.284189988161254 14.476018694010614 19.798339108622365 15.44449796827065 18.465283930569544 16.41809680027725 18.15393823770305 21.95804652640963 21.969719973474458 14.266660922465613 13.461074580033152 14.362431410969275 21.40081277304327 23.125103317571828 19.97344039112725 22.76956726143403 19.98756796627814 16.193307191930796 17.928154157968166 21.670313339916163 21.902906491807116 14.035620166791011 14.045576137259372 14.732974713042868 11.13851313332668 10.825579333299695 16.14606023332378 20.586909351133787 16.61015026964609 19.534195796441434 13.042094023533487 14.04597453619495 17.392879895043873 17.960329714717414 22.111492627315503 21.38977555973432 12.551295913062058 11.853300593547903 12.17645456315425 16.247776020594205 22.524443777286375 23.41727073613569 22.15513030158899 13.991154492166185 13.604484934148259 16.434114401578707 18.59554790291829 16.079278601533183 17.94192864325987 17.751862792006893 14.436614349634063 13.604720013718568 13.702779958259965 12.894684187276855 20.749176343191223 21.062563600407945 12.07157447363551 11.03956866378805 14.859860255321191 14.771797496242137 16.535962994930394 16.391455476498265 16.466879801994608 18.35279976470221 19.414290514518928 17.70806143551232 17.432724833230342 21.383436183237556 20.614941596618976 15.684549028028194 15.088515538719081 15.017755567061188 16.482130769071635 16.54375180280381 17.438234327850424 22.73241269369721 14.948327079756904 12.880442636913154 12.0895152672357 15.67101624353794 18.999667042336817 12.773219804169042 12.550603483262385 21.969263169796548 24.73858228889491 23.629939704072232 20.61464725558704 23.8484624683006 24.573001023699867 23.051360521087613 21.87043748115584 19.265335713802433 15.451720975433739 15.096402479812372 14.167130459344111 15.10140575402441 20.009002421196968 16.898387708200236 17.892662136998695 23.00004463754985 18.544260258992324 14.447444893227065 12.328124786989713 17.705093168946654 13.21732921832314 15.161989273910784 15.768090683758798 17.281251103795935 20.02967999032261 15.16421236362569 16.60181483512747 18.840467530659 19.01459676410079 14.513668383999672 16.307964482607545 15.398632055345246 14.684229114811885 19.10907376728926 15.621942546384771 13.175763482868152 10.416407574569256 14.838253019811262 16.361325193114986 12.63555179098672 15.978842834034976 15.340500922270243 20.838822398130812 22.909154102630943 22.499182998442866 20.0609712884943 14.143057702725065 16.114434073230314 20.068725570972777 18.531007126307557 16.157587494740856 16.988013362316018 22.747167851862297 20.945273970054853 14.1327110545388 12.024774428744898 16.60421380047286 18.359691001357326 16.22219926171928 16.694506893275694 19.80774903701352 18.236270267516172 18.759858167528247 16.392381177088687 20.375312353997607 19.14924930085606 13.21092445177184 11.843527477743711 17.684736698663208 18.198531392939298 20.12811626080676 18.98127047760738 14.026666142622881 15.270359813965378 13.472314435662954 11.100836639370456 12.582953800880095 12.277117712405376 19.9427270490989 17.73663529387983 15.856610055214972 19.14980865165897 16.632641848073856 14.628202754323416 20.762569592458103 16.780201102900293 20.927931109524465 16.994999413003114 12.605459532535093 13.680553417911984 21.52847465811818 21.957325597334187 21.355386438557275 16.947837680422204 18.308496441100125 15.907110288041913 13.5729521543794 15.465884720973703 18.232538120719052 15.41832249246426 19.75418923940483 19.89178774270714 15.7325648569356 18.494565046715064 14.414630064852858 16.818852484879827 15.162857715405753 14.170867778682783 16.508630324802496 18.297683717286283 21.10980935154598 20.859733734474318 17.25130516789732 16.538463531617353 16.899920888097576 21.902513380647914 19.979347620956737 19.11937724371482 20.63730001879098 13.87003197134992 18.93807331131678 16.43767111905597 14.773970265510478 13.307543626466128 18.756938287926797 14.685092801712152 11.303858588944427 15.047795933001598 16.618284989771386 22.73282709185062 21.42364758646034 22.45324607797206 16.77628452909218 20.339556701550848 22.030246922319694 16.854492691923582 14.343421462709971 12.90984814857614 12.0089412928385 14.455584909076643 14.931257621691742 15.813067435806172 19.27867318778363 18.595508314556984 17.112225109482495 21.62747223256481 19.73218616146921 15.674945699349443 14.907422535487932 19.354350859268553 23.014067312919146 22.38290650231459 15.940411872147397 11.295661486414494 12.640547098602903 14.772319569546166 20.91854813735657 17.961407272946797 15.832719751173272 13.1528788108352 19.13665153628941 16.38010444840589 19.489139037356136 17.753004456191086 20.253190594403314 20.803167485731905 13.29072951560816 17.947063535211633 13.07885178958397 12.06384921452067 16.910679371470394 22.5542665849264 14.876182348299569 14.292283506311062 17.205678637913913 16.419503580573824 18.323775727485565 20.90679796794448 19.452312227966804 18.92000200836007 20.334210916036913 21.360766882554458 22.58173320218016 23.489848626445863 22.846932588118133 21.474526234774714 22.289876521436003 22.22850611962642 21.88308583021934 18.277962871491766 19.782414194038072 21.76055220158308 17.468212085923344 17.51050836063937 17.71267166132295 18.85369336212622 14.298826599806013 13.442099762553957 14.463455543601908 22.96664404955841 24.78227559115405 21.17962161634861 21.14849730157157 19.47760353788443 21.476737182708938 21.821319306631555 17.074766052277518 19.225706502682172 16.39788493443195 20.1012311076315 19.63809632149496 21.634063770340312 21.663811565419806 20.993614325460097 20.176314859051352 17.094087866944662 13.200422605975762 12.292949839874499 12.001371720711207 16.222159046042872 18.71349468204424 18.123882726700387 15.235317882186344 18.0165532758911 19.85069209308525 18.29828373168979 18.052413611049655 21.828033067253912 16.107297026566133 12.124118874832044 13.893797383701529 18.79684317280458 17.495317357955557 19.385105346370967 18.971516315399246 18.1567801127476 13.411246290122405 18.225217081958796 19.910033552402254 16.134041684712567 22.691105672122262 22.226333933942115 23.192961287300093 22.506483350807077 23.38622704390527 16.465776931963873 13.916882752714484 16.782562010931407 18.64528900505411 17.46088019192052 19.656342778423433 22.407077890412552 21.496897688160498 20.184282370041824 14.524283848240668 11.790186672269526 13.654493370212096 14.786333215801225 15.835761561018916 18.26366810723088 17.061672638321138 14.354055483394072 15.996036169741306 16.13970658648432 17.80012646077809 16.039108470269092 12.420995863093038 12.95540887898504 14.99007601620935 17.094279424431754 17.037907146433714 15.116992779776668 19.147927748864596 20.354204642855134 17.950065087632918 13.292076769009626 15.873138192217793 16.39999094654564 20.35488546385709 22.26419828929081 21.604881703489642 19.89692739197659 14.853950927527922 16.940681396199786 19.125150042123554 15.113534622885648 20.607690385418618 22.150010728064018 20.47085701555976 16.78961567476278 16.596462565308045 21.346116396660527 18.07349585710266 13.486294996233571 15.584679204731762 14.436200022857516 11.913185207362828 13.567445418906884 15.827221934789705 16.93545674367223 17.093723046005188 12.389562776910216 12.248927307859805 18.368215138018105 17.969128624945586 17.233424344582343 14.681160556622151 14.74116423574324 17.235820862247074 14.675676602709363 15.66743084082754 20.673198089931574 15.167361593818574 13.334196097086794 14.512469645564654 20.873148776024376 20.932391434545796 18.118473987817374 15.358335513973671 14.037930650079387 17.27751376531884 13.705305919363298 19.232822422881156 15.822655023528805 21.655782075903897 20.50768837728416 15.816895216628824 16.3578680572535 12.194263064029341 16.026311665278318 16.966817259199942 20.413362195077156 17.759984734378172 22.848316594158682 24.40066846796776 15.313263248615035 16.973300945460743 17.07242056845511 12.769376328980695 17.34395635455213 21.63783352174085 22.145900619049844 16.2507232459109 14.749462381920429 15.385612714427614 15.32542576176979 13.750448669479058 16.345265719847326 13.078180526268842 20.484232018788664 20.75971611484698 17.004061508216576 18.018781847114795 12.661001565045032 12.351139260746361 17.99448763520806 15.703250720510251 16.977546703020746 13.188024534682903 16.80366698218461 20.865100309537944 19.423306344528925 18.429280609917477 18.12953355586483 19.70268852922032 15.53729191917641 18.831449583306753 21.457373434930442 20.930108943492364 19.948612220583954 22.174287354871257 23.290990710393395 15.641102505547666 17.246652002772883 16.316742790862875 12.413737537199554 14.830212305646592 17.34686963146687 14.332836923276899 19.52556238505509 19.658400595609542 16.966756999722026 17.653057868170357 19.163993060225366 22.08890656336956 21.076661466224927 18.585544320691998 21.410334939333346 17.892144370503456 21.243360460047953 21.39541354659754 16.101080043717243 14.51285095105874 14.125141400596766 19.619519817105495 20.157059019694525 17.51803138774304 12.86642876789104 19.190414615751195 19.656489987845895 20.16862433283028 17.394156561501504 23.333951996048526 23.40796003958613 23.67644297900522 18.68809294265468 17.136419180822685 18.341763115528156 21.230851951486272 19.159133729123837 14.90525218022167 17.42770635890176 14.851634457923797 22.845999566244 23.303505477036424 13.896771173441241 12.079305468480188 14.10124229575153 19.65614952105704 18.606728734285323 14.917745646485724 17.8444905855177 21.403888469609047 19.688452992069248 15.640063101838061 16.816666201346834 15.318876215523225 18.179888030585587 14.225169609446905 16.921436659117017 18.504413223024233 18.58267139613446 20.853157374455595 21.563732168965796 18.11224197058076 13.583745109548548 12.269055138037707 17.315343730249992 18.22562454242098 20.516095006823715 22.59556014853182 21.10017101353696 19.585663938740925 19.342524589427104 20.75015356383693 14.143829131887909 15.245874607031013 21.769836694554797 21.691483631129376 19.46801283206018 23.767823519745473 22.66834187331435 20.209087441064565 13.761863876668645 13.07592026067437 20.11984939899835 18.560383167725664 18.621482260689657 17.747708843620433 20.552460490063517 18.71402899694029 18.598139312276267 18.45197626445906 20.569657685334228 20.505430038478885 17.865874918599214 18.454206960622827 14.475565543285969 17.733338018334376 15.207062432660068 18.54815247038505 14.31321623525651 13.267835858803542 18.744061793848363 22.393582188931397 20.468316713296907 21.622515053708607 20.057885889929175 19.01102977576948 16.637774885802887 18.495131527200616 18.298334017367086 18.35303000873677 13.876904853468089 14.335040508799196 19.608613098975702 17.85089670306568 15.49406209187158 12.136617025013985 12.875489652156723 20.882984604569895 21.6440652644651 18.960921665572005 13.697920341347059 14.502158944569125 15.323981371360336 14.369293189856203 19.653554267373853 16.733150710225964 21.077505041258238 20.34523311189589 13.454168800965267 14.36441054516884 14.478270540241223 20.74902771406338 18.031458527429805 13.90509694784734 17.67287759879245 15.485907221450855 19.435250640387558 16.554024339028025 20.177322342917286 15.525706573494128 16.187294879513466 20.94400360462688 18.59561708122632 21.61393422332927 22.582305178677416 21.37458082050924 17.49648899286688 17.033526550463055 12.161878158577561 17.023020175443445 18.680771391183978 17.214975911528683 17.146806561709756 17.424695149308693 20.691900256617433 16.385647865353317 18.96577199638682 16.220600675845922 16.543355286097327 14.39572381309767 19.25833485979699 24.622132042040356 20.544024735965383 20.89440960889543 20.75927740620089 13.91896872827107 16.522083522178914 20.333533152349624 20.024204795223774 12.49020170158788 13.05536833668918 14.472739909035772 16.90467997275655 17.139232165862538 15.898954491695655 15.780301079910588 23.484700391807436 20.67009764000131 20.017800862934862 18.256230979478882 17.803469530017036 14.428826763721247 17.32679448973615 18.009399469011182 22.026061573840156 14.973454666810635 16.395781320725632 17.26116697466098 16.402717849960965 15.583789270696148 20.04087947946904 14.693097944227112 13.958455125988479 15.530633386159831 19.55204303350803 22.143031284099855 19.291500844514946 19.458212466605385 20.56600405020223 12.82454297812778 13.69366934490812 16.619579939013782 11.258602008989328 15.659263966955097 18.129520796387204 15.825943087201246 20.599091832068137 19.7223048226682 16.848518201630625 13.253068494468684 17.96769624299396 18.569762033243464 17.474678365617027 13.768202274729934 16.957913110853948 21.555237120565643 23.848918535607343 24.945039838196795 18.63385695292307 17.01935978448367 15.377576003798458 20.401072285876683 15.95443040471789 15.98077143338004 14.199751531876409 17.593866042006077 21.48767146334637 21.852081516911383 22.239538576395212 21.59072453031417 18.94682615173218 19.889096019009536 16.05097459454797 12.501876447608156 16.939858169678704 22.035463346534332 14.653642374066482 16.91343314088859 16.286148203882224 15.304688277813927 18.81464619674804 21.035934167860983 16.228563408569084 11.453339251259205 15.373594726349001 18.271483274751752 19.866812025143687 15.376292155531864 17.495074544778742 16.465262261211194 14.990642459696929 18.74213440314912 18.335589314810537 11.838049673316274 11.553264455978878 12.358739619553647 15.812575981660256 18.274317589311455 13.430470377805149 14.04626553072277 16.651118046245454 18.73490095321001 13.925502114242851 15.406583707129167 15.197014051804029 20.878778536673433 18.41807090328454 19.29080021705003 16.911694159109757 19.73499675611132 16.436013900564767 17.16451082416049 14.528916787689733 17.973842782516556 19.085738132679108 16.02215685155698 16.94452850681448 21.887694464269668 14.31902804159418 13.32014886537952 15.788636968101239 18.93533853804219 20.196874025816637 15.884388887622631 17.34934735168611 15.265119076514955 20.998349093288773 18.177258356441165 14.576407157477604 16.038491432573835 16.688033145852838 15.641048915228025 14.143302099222243 12.778955514738351 18.354560741988273 20.03107032639386 15.351668041025865 16.708653285320043 12.24810042709431 12.006237072551556 12.268789723115589 16.014213763673776 19.883612856259365 18.954617172709675 17.671749479483047 16.618859011775918 15.547589113818013 22.520888775565687 21.936634338865517 21.60992615232411 17.985476657593566 18.04697506742768 22.168647851083605 21.260792000465216 17.859120119432614 12.387688147758213 10.740704542378698 18.470899145453224 17.5075459817658 15.22260714127829 17.83846440246881 16.606162485063006 16.06631726407552 19.705546261183308 20.499490007456977 14.347883792078843 16.808274103819482 17.859635711929247 19.410911053527407 20.876900069562804 15.44699556449677 19.951631260875978 14.693719825997011 18.024071811801022 17.308306732725324 15.67649503928674 16.02558845324569 20.21115179623387 18.659937735384574 17.312257997637577 16.535465701611827 20.997548554995483 19.34666447374229 14.520970623856398 18.077362675676323 15.228713545702842 16.740689262996035 18.218786788605026 13.046443761363335 14.433508988384364 18.67756555780277 14.419731013455554 15.425119869911324 17.799091613625237 18.27827219738523 15.079111621608545 17.851297315910763 16.388909553636502 20.11487693365578 18.299503170925753 21.331243757160674 22.596732982927733 17.337161599622295 21.96086643770199 19.020756254247473 14.827429435695542 16.92423696819844 21.657852764036015 21.61941568225603 15.217062001357977 18.385476280686937 19.52119204662847 14.087873864810902 19.082938040850216 14.821329874970896 13.365168016449273 19.629205872249457 13.14145352255187 15.99259341719535 18.369640556971042 16.825938094569864 16.484217254503953 19.90192699480304 16.889779530571683 23.198977877535942 20.776633011811892 15.062980420609605 14.718345856341184 10.5553