# vtk DataFile Version 2.0
Ocean Simulation Step
ASCII
DATASET STRUCTURED_POINTS
DIMENSIONS 200 200 1
ORIGIN 0 0 0
SPACING 1 1 1
POINT_DATA 40000
SCALARS Temperature float 1
LOOKUP_TABLE default
13.380824374208855 12.610931409281115 13.960433069392431 15.67581538407205 14.977799161822453 14.95915500335257 13.972689686559441 15.779873315583616 18.859516068779303 17.21482008096547 15.252133372473905 14.696103839125104 16.568399495426007 18.35126344924811 18.31450026066316 19.718966694606454 18.832491379375234 18.526575833200926 20.11004716001868 21.292619505607593 19.17302874438396 15.795385222576297 13.072107645151698 12.76643325768916 13.57847745986265 14.167772207108817 14.788934852844003 14.243055459993798 17.504348206041197 20.616082903424672 20.043641143389415 18.364356513572915 19.40322896060285 20.943202614967305 20.65941475489171 18.13469166069008 16.658077512076318 19.359142690904534 18.130090086217972 19.422949430525016 19.73227155912352 20.80246381995709 20.277358694866166 18.668087817790024 20.19082225179485 21.22044226485268 18.444748905210812 15.991340815130476 16.241888226003223 15.479615661026681 17.003616852221434 17.656997140875983 18.24215931466923 19.820845877080824 20.548796739933913 21.32042190215185 18.100096535565566 14.934337512666868 14.678098944373772 13.45411268727851 15.17926518393401 20.361053417013945 21.88140263449164 21.505916593820718 19.368636064730556 18.068496572899257 19.909706640198053 17.924365851843017 15.501030062827441 14.23659010778113 15.648413562952092 19.25895478741583 20.825925753380954 20.735263390221274 19.46070109052625 18.356048372681233 18.762527514584598 18.320523591630266 17.0519410945153 18.168602027651065 16.70536968345352 14.818450229055388 15.417235004137622 17.57214866898571 17.304405010172893 13.761689482632368 12.830813768744383 16.3514092315707 16.499182897270074 16.59067414863978 17.527164725313547 15.552824299511377 13.276883047137995 12.442003733771488 13.825235795962099 13.205573691904231 13.055866711400537 12.668320097102796 15.168307736816415 15.9424752634919 16.330470196220666 18.627085229286223 17.41737487339955 15.79298059478095 13.40163754021274 13.385189576511479 15.892002177485539 18.036279033397314 18.165123144761075 19.50542706137158 19.414421582634787 15.959280230262861 17.4817848156086 16.942738853965707 14.876563698803626 17.06789980738397 14.965565533856834 14.66184455709341 15.613763729020164 15.656685130441351 15.739891718338125 13.970659842206011 14.255377467409131 16.942872656078208 18.916662038533847 16.845670497610286 16.954021453961516 15.763292861170981 17.17229484882134 19.01780790167026 18.758708787034962 17.226578807339266 16.570388391390352 18.317469048961634 21.49277305102707 20.867434148884485 19.52415481892367 18.830524785217968 17.21169508794957 15.55976820645991 14.620406944072311 16.04336761808478 19.025002434893622 19.845441455541536 17.71051302338388 15.528100575223352 18.673137601158313 19.954162381930384 18.93724184568454 17.851028165024378 20.46992844595507 21.136061571237928 21.150305319211828 17.188780499713864 15.84670072544891 16.864126836603873 18.03016082915832 17.329006700297317 16.214922912889964 15.147742375316197 15.534362110245144 16.19645651809314 15.744443574361679 18.565468043581465 20.2684338318429 18.814684791747492 16.444523734929124 15.010821575727864 16.560891573932043 17.327687774994235 20.21368360609284 20.03923946349763 19.230362811744552 19.81144715849307 20.93353360195624 19.13674039659649 18.775913015247294 17.338747936256027 16.584635866409375 19.60191145076253 20.415926417837394 21.25103029298861 17.250983382461047 15.253517209986255 15.391264597400543 17.790933698397296 18.372848310532294 19.543431966577153 18.11381699629559 16.678744940228228 14.521537929183054 14.029292452186656 16.472737633506963 16.337863799792004 17.133120164743683 16.191370283617307 18.036929292444913 18.461242913923055 18.849560773321038 17.187900609317502 14.114456980959531 13.156834753343635 15.971766427865845 18.43764227876043 18.056109124483573 18.2478534612028 16.163005970954355 16.996892926512036 18.839928852117072 16.43409474506185 15.239263462726123 15.31253194963445 16.814632736688296 16.993268706365306 16.317400444825097 19.7831163107318 19.753319785127754 18.900040438353567 19.681878176960854 22.402675718592718 21.27110359392377 16.778149661091675 14.055124886333564 13.092751125794672 13.663169082211562 15.624326718615348 15.462235646691115 14.356031786775135 14.801759484365371 16.220808169499847 17.148952491913878 17.388126315636097 20.397426018276093 22.765374953886774 22.45810947819776 20.859230985912127 17.67850625131917 20.222224976053752 20.119949901116943 20.979610852422685 19.88925388679906 20.598242562629505 21.98401656539904 21.478814696074735 20.94390155311553 19.593992101864885 16.07878607214946 15.5183219809064 17.233293999379953 17.165957347325172 18.437340987338537 20.187590041654932 20.833728990271304 21.529324428048835 19.009374431789503 19.14398688815017 17.90556588483203 16.389069318215732 15.686198222721256 15.026301984082009 16.82285961993052 20.274641659221587 20.504018708075172 18.148709649928666 15.95571625568896 15.438601644917071 16.99309871778764 15.238392263210418 14.464187115614598 14.248848026040895 16.624246776975227 20.80870646146684 20.77169851955966 21.174737152243285 21.410977738129912 21.342076375451576 21.87738525115578 21.057280130976807 20.83251172064357 20.7527292010316 19.691313843343696 17.3870443439324 16.999420245858875 16.58405691747413 15.37929478370627 13.039063164864146 13.323196338993844 15.593714494006885 15.570041005644306 16.781636923061505 17.25438803723888 17.24393790145013 14.84770214196748 14.118346381855167 17.09400242195576 17.109563494831672 16.690037090167788 13.881819974206305 14.948294031805506 13.84420470503543 15.335046055800468 18.31066045134972 17.04688205041767 15.619445416053896 13.922478942443979 14.533846244894493 16.75618525435367 20.752741498325626 20.582020939349224 20.052325583693634 20.919554043486038 18.794376794531264 18.73964485805895 16.255555641954658 13.898388341581638 16.36466859832139 15.469247356443912 15.395148725513248 15.720179174671152 16.64612703735747 16.03106649338582 13.503504282921163 11.769008713557783 14.018115458366102 19.123039587654933 19.876997200076747 19.18747454828402 15.749812497371956 15.356207427340792 17.33966185113079 16.020127035313784 15.193661093428975 15.346311238599666 15.784288482578274 19.03438513840328 19.31032124759709 19.413134997118696 16.405746306700788 13.719540112779578 12.89642747000559 15.28234071347864 18.27461783160932 20.98268696364633 20.070317787930733 17.085845329980767 16.953133657101585 20.664786275961152 20.178948817223297 17.9506419692146 17.572707253796665 19.750215302725145 19.92834756603072 19.93207584513509 15.843030670870654 14.928235983104901 16.30834091953477 18.513439836054104 19.428560651118865 18.17138232401695 18.482787491987306 18.779611992157836 17.086936375289806 15.815688150672722 16.8028335191867 18.62969302955729 18.643435132479457 16.123710965107914 13.895185584028138 14.910357909992289 17.023368452877563 20.449548387817554 19.073074483782285 18.00829089277935 19.175685070465892 18.736884464883104 16.070550825101034 17.39285069998074 18.83598813482082 19.139689593450083 19.63164447155773 19.672079824791492 20.502701327550362 19.543296028336368 17.971150817753347 16.85033168262605 16.04060826123786 14.13682950123824 15.40835136825969 15.781990517284088 16.009257192066183 15.245389442450175 15.023802833069306 17.259513529445474 16.74643374597392 17.45263840956585 16.887725057076118 16.634657535593828 15.653023480719998 17.614677862243507 16.971513826087378 17.344087967128104 15.705129201735783 17.133903681062822 18.731368890484966 18.380381876873727 18.444118862534566 15.579953313735611 17.561851656626246 19.87191582318762 18.067013370176497 16.58084146058516 17.075438019439055 17.282897987384185 15.274764550305884 14.13850798795222 16.30141411738316 16.480239696686823 17.61141156003273 19.160685736131036 21.170464018169667 20.90817303447908 17.587022236945195 14.73262449642161 13.150734896180637 14.79906260134772 16.98027519460315 15.976859124098242 15.253277319754314 13.525905506522655 13.466019767840175 15.196760297164781 16.03913696822272 18.539485753053267 22.258641245903778 23.554656421612457 22.871622888291107 19.458060609495476 20.74942470912058 21.86628313743136 21.42573945444604 20.024976269578573 18.497769896585393 19.128684801323775 19.781692196337463 19.283234607506824 18.650096042839667 16.095718700923893 14.653541435197342 16.79024489963314 17.9040208737741 17.1959799670008 18.54360753757993 19.20595395679689 20.15779210980024 17.877314278092687 17.90061295122613 17.426026400008507 16.371286416556615 15.072251318386764 14.016023585737877 14.330681042214222 15.680727172924176 16.966436730183926 15.077344668807399 15.317325144811726 17.326172404325675 19.102961489408873 16.785683441323037 16.421262310909817 15.834130854592411 15.729377542479936 19.6737346968799 18.62723538938887 17.695488499376648 19.031862582787845 20.391710894901486 21.69772515439675 21.57257645324546 20.99482537889992 19.9498625191899 19.511685389703032 18.362357603953974 18.760225190435325 16.568828880765246 14.603864305737986 14.207050022056071 16.297651768684297 17.044432864845515 17.297085884263083 18.54557727838904 17.34490502958063 18.484563741443985 17.592304245234523 16.632118914482163 18.220503556214172 16.755310977241447 16.76534608845824 14.548362164284926 15.596856750504204 13.627792527878414 14.408783133309866 15.682011160638217 15.64270653574911 16.911165280973194 17.27848565238217 18.40546414443084 19.390633467991346 22.07038079317377 20.421179734435977 18.14842523489225 20.24825168509215 19.909693554576766 19.7373549091173 17.546519030415386 14.104590476085352 15.538877399895457 18.313964487479 17.989946751486897 18.2416849828035 18.589890662864452 17.213652026696163 15.661265837839634 12.397876458274716 13.686412544850459 18.248838504190715 20.875771383421572 19.71458901162307 17.76915037643951 17.067296140237257 17.42738137734276 16.742688404405783 16.26803468061023 16.4099151150124 14.710074984816202 16.59142345246336 17.077883337433192 17.336080569844547 14.853068929134594 12.490802735279138 13.554521111766572 18.57862323883054 20.105407169782836 20.452499932194222 18.295879016836068 17.412814393670587 19.671884396100666 21.03851035661452 19.39918335854362 18.463492252457346 18.59845477996076 16.88599050560079 16.82388821814863 17.481723828705196 15.169262119638763 16.033484110859465 15.580504089847727 17.070892022024267 20.26788058216204 20.27952969930758 18.59491416281498 18.697792335024367 18.911510762561786 19.640913483818238 19.41143832663358 19.663144658914675 19.44847297317516 18.312391449270127 15.184691379691257 16.63553245436269 19.317982392890467 20.675128940180592 17.280879863852014 15.086290210218952 15.429768721419611 13.287120572109028 11.766658365736541 13.916576214893288 16.193694031134303 16.63072975820952 16.38073718001483 14.815569204702626 15.559412020614756 17.519237417621085 18.321099434280168 18.821262520596438 18.23523566928349 14.221364854431974 15.12711205129297 16.440391303945965 18.536774284131575 18.96517467920856 18.064204473017128 18.244089356356948 15.774725145333404 15.527149483657224 15.779136181353833 15.475547350015647 14.688406774922836 16.98841557424516 17.00322790605675 17.40517435732378 15.722828232202767 16.81280684025011 18.171713752745926 18.829794915585722 16.966814652639787 13.033085760175203 14.468246697214612 17.99051951820018 17.73241877400628 18.9509154974864 19.779686183269455 19.227946911423107 16.486378215085246 14.64843643877235 14.725556990160579 15.447961819157266 16.815756233920673 18.749830929803156 19.678691577435526 19.89465772137534 18.10797925398016 14.944562488534372 13.694035429891388 16.005556554312378 19.53444062110211 17.792271468363314 15.460278416590276 13.965557023175917 14.140045215425912 16.61899808945885 15.956601011760299 17.990173373038562 22.25551825898481 23.458657957005215 23.210792397192314 21.030552303017945 21.68682579320894 21.225822009309123 19.264653322317947 18.76082187155201 17.99426126898554 16.65384700434634 17.680811596400197 18.374711933484345 18.96331405380396 17.968179193983993 15.5771167270794 16.4167790048408 19.927936555768145 19.263189700338913 18.988411713480584 17.322677438131315 16.753557712074883 15.294234624302145 16.529709626932924 16.50198407779532 17.024642958950334 15.576997653992915 13.134182339192959 12.768862758545408 13.974450593571927 15.608068884327988 13.611250203648863 14.106622779824306 16.166597886159803 18.50969442196526 17.840618215793768 16.289463299474264 16.07231641949474 15.125232618235652 18.372963149338432 17.618544215020282 16.045652358616 18.008769790672506 18.532727626298936 19.164631234999128 19.200319963259926 18.04892665412538 17.12949769128328 16.243469707174047 17.208182516150867 18.544664346155447 17.147886567188582 16.1015524090244 17.610396539213358 20.034319601526608 18.19477714438235 16.248305411809568 16.437164165396585 15.886849548939331 17.769212423541976 18.814636544882134 18.635319657776385 17.168241097567385 14.861995839022926 14.956611423161712 15.340182963061688 17.731938987716024 16.312032601843402 15.670508725289059 14.770622328159988 14.655810356178321 16.010125112172535 18.264329483766264 18.555607506269823 18.655991536003896 20.47212734738237 18.373276735665186 15.339746294059603 17.215750359807917 15.943736623633967 16.885520751405085 17.369285474306178 15.745956174385793 16.840159016826426 18.14899156343324 16.430378957664818 18.12094621382911 18.25267600424008 17.94693892968956 15.58275282930684 13.32988862697293 16.03139759163426 20.278510495953018 22.2475340504595 21.354995663683606 19.427842895040538 18.926718538229856 18.451499098150617 18.612053117960706 19.202040481943147 19.04427533252483 17.00757223824698 18.690863457265355 19.215230951510105 17.51634693948269 17.25069130830883 14.615482777273508 15.807769819741685 18.924914091822714 18.483718744380436 18.047254113928805 17.093311963758392 18.28571211177698 20.373726418009994 18.904013424826722 18.03147233212114 17.94072812610734 19.40174068410417 16.591774987698518 16.345015623454042 18.04179676697206 16.131398678391644 17.322124522290906 16.61256774217785 17.602784125172814 19.827941021487653 19.959702783060674 16.182144876984704 14.946425525339526 16.252488159219812 19.71876265298747 21.37173171237838 20.71696662478917 21.14371130338612 19.303082374509966 17.389361492932192 18.48011011010024 19.950917313267958 19.492676028703585 15.478801702866821 14.108878202551958 14.285205871289559 12.669782520250484 12.654808003118923 15.780082086996599 18.12559471384465 17.34723553949134 17.81467357136823 15.101637530300028 14.968878907228232 16.831594729165285 18.59682401320884 20.719441562453444 19.710334125112745 14.501456510786394 13.021004187314272 13.822666730154783 16.971712017067343 20.542837635714484 20.89838984889617 19.424356825447084 15.423335042106174 15.209360650634066 16.345825563329406 17.358835479796642 16.595825333634835 17.827288305871278 17.86624415264188 15.779397846086631 14.806541588837133 14.56276725872039 15.218252091158346 18.83972844534355 18.836706486499253 13.820583042709199 13.08206258940431 15.414522891023498 15.868570016278488 17.197758667698604 17.839025875788387 17.82488884241676 18.016252868972266 18.167892345366678 17.74949365506849 18.213675527548915 19.991135950726274 20.007051316979503 18.067493101040288 17.446726329428152 17.10268564120333 16.803136265939568 16.54589377163138 17.959866732755625 20.192635082248184 16.694363703089905 14.523489083499491 14.083741910615329 15.659024334215113 16.781852292644118 14.452539313995883 15.540803077568928 21.215808758242723 23.600433599680432 22.949556913100057 21.53714585744014 22.549699060353138 22.925769957919396 21.709274024624214 20.29921849702469 18.72201331651807 16.463362390297366 16.36319543170938 16.295803101245053 17.372514345240532 18.899238201498342 17.7745211984956 18.31560705338229 20.185473490085773 17.881511366091438 15.540449276836767 14.419450676638798 16.102807986861706 15.04510663264792 15.809657644518683 16.178441127368927 17.439384420030265 18.02343612051075 15.910348374816968 16.144045394281967 17.559878931797076 17.22459987885715 14.806116340107868 15.294062200632046 16.003703137260263 16.657364833065436 17.971749650698918 16.313932269110037 14.592969261864734 13.075476444879648 15.75476964312028 16.481727759617286 15.064409390642298 17.067705444370766 17.845224012452775 20.30461671244199 21.510062450127336 20.933689514175267 18.453476896482968 15.637260132692768 16.76459162733393 18.787271907669574 18.076100632869174 17.309416858240567 18.58625588407644 21.027257051534065 19.35247993644661 15.320533244571521 14.0316093824781 15.671463346929773 17.181542131694933 17.14383918752827 17.677092504381463 18.185265680250268 17.109180857501098 17.145923031303923 16.905630216768525 18.72390852099691 17.4663643010006 14.483206692607677 13.661681518679153 16.0142757023736 17.452478228125056 18.745580388168285 17.93659976408586 16.409716236454766 16.807363928099736 15.238386282318544 13.145851432194554 14.11827356431096 14.672843321152715 18.046124375462362 18.225666010569583 17.314798763781397 18.06529508703583 17.0125367642557 16.212420125590437 18.619728042676204 17.8867549655873 19.177064368375945 17.237414569645303 14.687857179283066 15.682722214713735 19.818980843917117 21.443936132465055 20.383338948059603 17.765758056113892 17.546645743662346 16.251222550564563 15.193402377747857 16.285217701478874 17.50352139464159 16.859082118951257 18.556479892091925 18.21963664378993 16.46926894871572 17.377807363556407 15.780359951359964 16.283464038049843 16.10370293711502 15.698975222191143 16.7478711942027 17.61188705966893 19.286977192462086 19.99597982275672 17.633057815814762 16.69255988865974 17.445543600968147 20.209623766978865 19.335452101917202 18.57930887262846 18.500354501076718 15.874923781392955 17.383474647826617 16.283814420736224 16.04605647766207 16.193143902995846 18.180150899203024 15.830459799235168 13.810154339442315 15.299138056290365 17.300038563621566 20.478115464966734 20.666221716483665 20.951780421163736 18.716580308289267 19.786075171317325 20.541568461741758 17.945631809662995 16.148053113069455 14.22430083414706 13.29437526261835 14.707217185318335 15.463748379049733 16.24382993613613 17.632059776597096 17.87394204277324 17.496776346819416 18.990571243247167 17.54175789704125 15.930540162982012 16.03557687119723 19.123008289490937 21.417541583289182 20.31279719352996 16.046930903598614 12.868627862756652 13.233148679052986 15.927717338308799 19.04250613804944 18.460465771783138 16.543544140682425 15.235532801640279 17.422491505942133 17.40013537654964 18.40459466143395 18.085547139445293 19.11818621338038 18.506814188568224 15.378158596336762 16.660013567129827 15.126598157417298 14.89649058098407 18.167577150723947 20.07358950345347 15.750243094048463 14.845082218587427 16.121408571042764 16.024274005244468 17.484710436170825 18.92205331793022 18.49661522453609 18.96755211746878 19.721744177386974 19.990155213651974 20.751747155822084 21.848420385199205 21.842987311262178 20.717140470666667 20.464086285037236 20.576346366370238 20.007086697978917 19.016444393425154 19.633716587541745 19.920538964484678 17.31765255086071 16.52242471677289 17.117438019509365 17.584972202741195 15.761688972643483 14.249809971375292 16.127018195982693 21.179297563476677 22.975028652794155 21.573628644169307 21.31377638616888 21.16481520777643 21.774302895502977 20.821630516053975 18.60973606038646 18.564629956979285 17.75987518125286 18.54909265618489 18.444233773413465 19.55702920064325 20.087378162436725 20.281507557190785 19.69674344607316 17.41134210587709 14.546474813340389 13.525487005755215 14.085702917428677 16.329636688032434 17.027042001457602 17.293267799389813 16.88860031690518 17.950778370524883 18.571770797469814 17.704859021907367 17.69257598545401 18.977345378690945 16.409010365270014 14.308628543773471 15.362774229937948 17.432695360732275 17.92802043326796 18.959130503030384 18.053636213460994 16.294282493999788 14.396934927901967 16.997729298074738 18.30956519493046 17.677422057498777 20.49537186816255 21.017329394575963 21.8072000012189 21.86339887007038 21.314753914576748 17.323890298363317 15.432401455866433 17.29455746575754 18.723629275874583 18.48660134323921 19.701462150238125 20.944461379910738 20.80545673773578 18.647126885843946 15.118319149919063 14.00449455777445 14.915230211300543 15.9249979343591 16.59098453754877 17.89923290547083 17.484993246190538 16.22284104142388 16.657130106206306 17.094007178707518 17.91246056200511 16.502148101030876 14.195754317257268 13.833635952578842 15.63731639894671 16.776252553877075 17.268724245676303 16.322566723537268 17.29843789107601 18.50209218685977 17.497980758826248 15.30831337673221 16.14608567910928 16.939752129816334 19.346766910023945 20.180563271279475 19.946388648261962 18.976532765893335 16.66689191157091 16.51816348511801 17.805943501134806 17.357365467757546 19.455642379426756 19.505701410811202 17.688601077300945 16.494786427424376 18.297424016842314 20.24179766668834 18.41148034483581 15.42452295740833 15.529979619210488 14.7746988992567 13.71242197874508 15.03104387138613 16.322244382417132 17.192274277323357 17.208709923173913 14.749924864928314 14.386367634296072 16.958639597659516 17.528999572570566 16.884352718208685 15.383361313019492 15.495373382903178 16.411805152482305 16.36451274068398 17.263279577979024 19.002230308772624 16.29566729798639 15.164157553253162 16.65493416832067 19.74987727663152 20.17296513149024 18.85931588112143 17.165894934476697 15.590154551589691 16.518222603968336 15.237568980919544 17.109597180621456 17.080147063677842 19.275675277182092 18.41806411321659 16.21795912435337 16.185540447507215 15.035955908310111 17.118195022672463 17.94999084548502 19.244942596883455 18.472097224948907 21.17659619182619 22.099438499205625 17.96173645496337 17.23282581569856 16.39160053140143 14.396869002467223 16.721205569647232 19.426039184832334 19.57707082127823 16.74882712174842 15.599183294065277 15.731200089953465 16.225443606416043 15.649875712736703 15.717169040784983 15.495430249482794 19.516014758587144 20.295574504511606 18.627840053200465 17.03260049091664 14.126715224988546 13.810960287823521 16.529024292949106 17.15275191761063 17.321171953103498 15.327676141347748 16.44286884583073 18.775313634754614 18.377336285568354 18.13599199130922 18.31136879382013 18.21810325445824 16.352621591624846 17.28031242003292 19.639118750573456 19.608662728943834 19.158621960674736 20.603401642621293 20.896554449103302 16.505739860282034 16.04438273985292 15.849886070435131 14.080868781273557 15.566177352265314 17.18358081292861 16.581872913516836 18.782057115193474 19.230147594143375 18.069511869495255 18.084613869500107 19.597275836341044 20.938679839817606 20.254866817268507 19.04765624202514 19.949668719249548 19.61581570713131 20.68875388469305 20.736821783537163 17.99426039105248 16.01379534824634 15.913327649862653 18.438421964436948 18.512862803709933 16.64296991579652 14.89447534958724 17.75103794534019 20.064861979569912 20.69725276066006 19.975714344522174 21.825066886146775 21.964077496347855 21.71672912742414 19.050944182147006 17.26683976199815 18.331449849930273 19.64688015829355 18.362378010881738 16.83872874130131 17.49233026951194 17.53165375557513 20.69531103805662 20.65423396841554 15.86548452044013 13.354802161949147 14.534369741042848 17.212202355516613 17.723656979989915 16.526979986891412 17.709716007397212 18.833629642401664 18.322868237200918 17.23316839065993 16.925599479117086 15.915708326446863 16.67258863642661 15.208615425180241 15.984654826720812 17.3591711539195 17.915846232083005 18.93614189889012 19.5370283402475 17.843330426579676 14.956975774201194 14.119958231588097 16.758705307549228 18.694133416447453 19.657703779150953 21.15243612381214 20.554240497066573 20.09628496757653 19.6128173949942 19.36734089630548 16.05456073955641 16.348429244129075 19.440682914825036 19.96785142226753 19.62816857389271 21.58074654998944 20.794733623561143 18.81886749585943 15.933408220975089 15.372330757649554 17.587951344408822 17.422431574636466 17.569547186754097 17.658330298150844 19.222744471397153 18.411190497738378 17.536562649144535 17.839559131034154 18.80989952205737 18.791378693664363 17.281634589872233 16.335530451669957 15.685169637395424 16.935459298452972 16.355084754545462 16.99177795768876 14.87417892648513 14.821940288260105 17.554485893745177 19.600392776513477 19.352764747824633 19.598969995781953 19.009398433264675 18.70276339484461 18.12356551373047 19.21010460497118 19.02691535058947 17.88527345458133 15.955236480421503 16.44448067418884 18.483392204000882 18.505113745307717 16.810878156206147 14.337231859161331 14.478311811457726 18.63002125731013 19.960092687163645 18.07850741846382 15.395644095641785 15.147585151307123 15.302277630500079 15.610578577035216 17.62765271280916 17.19051738006855 18.903667504704682 18.444926302358073 15.45493288583533 15.254602427324931 16.068558884371953 18.53954837191845 17.22757861284739 15.640840799127622 16.467403538750737 16.336846022646327 17.475902074097807 17.669889118982518 18.78886214738527 16.643870273060678 16.626259251711442 18.983004275408863 19.357142574808716 20.0851213197453 20.450290953277044 19.093855817076594 17.20280379163927 16.56872217586687 14.370879726419751 16.487689663223016 17.691868113905755 17.61783224883434 17.48720319613577 17.538634860146853 18.326788387150696 16.60145719707119 17.57331626533297 16.94340158444524 17.313412196965174 16.933707590270668 20.02484617180537 22.42441265053731 20.088767860708067 19.939737122086996 18.75019603405419 15.54255071401517 16.99317405305019 19.625837789018817 19.151721457545037 15.049556648582865 14.58646820666176 15.411812300071837 16.184326714195716 16.624074058651715 15.964175126906337 16.28489039216843 20.328830561453177 19.621324258307254 18.88642377179681 18.012731789727003 16.59771677271908 15.417262300162715 17.217048604167314 18.092110079672548 19.66546560089329 16.81185838091578 16.42157718416585 16.95793120838768 16.109062746563342 16.18319772738967 17.945757489121196 15.976887263610976 15.006584153663766 16.375459149891828 19.429717792819215 20.80292018983434 19.94850905261211 19.9505665469364 19.366550855853994 15.178136375797012 15.067422042500585 15.657895034432569 13.406605580260685 15.415409344502628 17.316490729475692 16.564229186879835 18.520701319105452 18.843332805633178 17.079958428776035 15.513913710092346 17.51684998058039 18.88208690445202 18.08990986858735 15.964323569409622 17.42224942242722 19.76432852313489 21.83426995020283 22.665334961431274 19.60258330081235 17.833472247745703 17.194397100347484 18.730385164810144 16.72790585016077 16.02748662285466 15.818905678560801 18.231977957070963 20.237988964108528 20.86000007170126 21.00809908573516 20.726263942510926 19.27402495156093 18.88435430808222 16.456637933763638 14.754530784800394 17.291553452198208 19.896233924711684 16.91536256276632 16.966362630184456 17.442028139098678 17.42633440153086 19.187070874495756 19.499974390125235 16.199147667498504 13.456971274406396 15.19867426648759 17.056454202089675 17.79096380162017 16.674961200922755 17.097649063091406 16.627263474664037 16.121096926347978 17.316444213712064 17.098410871467824 13.792206094612103 13.37967383878521 13.79946823570689 15.571765801519478 17.084776503847703 15.62144872286182 15.702866333769242 16.799625746793772 17.024504824867144 14.963503372305595 15.32032611380082 16.841511830808276 19.7339711182127 19.50183694895723 19.44452320114003 18.281531187012956 18.578140288809312 17.452429283020667 17.53900521140072 16.352994453664106 17.316248360817625 18.72025380275975 18.03761705164955 18.15943739100088 19.805383064365916 16.48827752871166 14.87654422509504 15.580332204744058 17.72863588091211 18.29525625124913 16.431277693632666 16.622857021535285 16.949987220673517 18.909827254412534 17.87940953589913 16.047097686170062 16.425270615142747 17.141537297358198 16.8152165154403 15.605319836236173 14.972655079667717 17.614989898639976 18.763664417789823 16.998552432400633 16.570443324323303 13.512435556246931 12.61681523663431 14.057546855269283 16.878343692535296 18.931664015740406 18.37798938518678 17.84897612385201 17.794574014381265 18.024947234551696 20.994578487352005 21.095379269504864 19.85455137923793 18.34717902355659 18.388261383792138 19.99023160720213 19.91867183036686 17.87144660356354 14.136970477511047 12.82608314817155 16.455418171522528 17.63034375702404 17.26607339188434 17.372244866791785 16.536114773890507 16.62889143816714 18.09367268359557 18.458595417034218 16.40508711755762 17.69952097222846 17.862952012229844 17.944340574042023 18.23706876610396 16.52353319780648 17.60434801022172 16.03629066109575 16.57968159650486 16.38691476041758 15.690073076238317 16.304770967642014 18.53158665146209 18.854956615978804 17.69463337501254 17.511377255061667 19.363871959791986 18.447305658849352 16.68974460977072 17.70460743769569 16.460184327046058 16.473822716251828 17.220232522840973 15.147283542372444 15.893300385994499 17.296423049044783 16.590564076366686 17.122250564048997 17.777095513001328 17.383303058464865 15.99626768462909 16.927276769435757 16.813979936774196 18.00564100838111 18.461695092576463 20.438175173748192 21.23679925465519 19.256817164245348 20.156529950436273 18.30033449117652 16.24470804030008 17.30713733073051 19.514015315005533 19.15298232041881 16.19261237583271 16.769623071374028 17.007962739784713 15.805483412496649 17.383408943131887 15.48318708440019 14.677538699472091 17.43953312782412 15.754920768874506 16.969493759502484 17.703536100695132 16.821940680827 16.30727283632063 17.8823781652927 18.55553984421539 21.183819119623237 19.59031038129929 16.417066818692934 15.236070778463185 12.772348232150991 13.643226496069875 16.906343927412934 