# vtk DataFile Version 2.0
Ocean Simulation Step
ASCII
DATASET STRUCTURED_POINTS
DIMENSIONS 200 200 1
ORIGIN 0 0 0
SPACING 1 1 1
POINT_DATA 40000
SCALARS Temperature float 1
LOOKUP_TABLE default
14.070377211066118 13.256162303847578 14.356441096663275 15.681475003928027 15.486734959681206 15.27924404916307 14.635613458137843 15.866185578443186 17.84199061850251 16.853125671937484 15.445966740851059 15.205343504750356 16.58023118522286 17.8883810785757 18.18724858211116 19.043847534629062 18.746542803233044 18.88303315657654 19.98235458336056 20.68841049253382 19.148009234160735 16.332866777388247 14.015905834779891 13.462791620443646 14.001416238056619 14.451849893623704 14.752699903646542 14.915269304255663 17.29558765088982 19.488466955426524 19.291518883135574 18.25611312696723 19.05294475558444 20.195223968606225 20.065499887991855 18.379159040277003 17.467648026815464 19.167105623374308 18.93965476331485 19.586968717586522 19.90715318802901 20.347567175467294 19.84035438530534 18.98461078476315 19.91735981793983 20.312148259868852 18.22802553537069 16.370812059614575 16.17619617480701 16.019572375393174 17.137172093748482 17.873096413326095 18.340817784228427 19.420114008812504 20.04297332149215 20.494327275617163 18.375199740308652 15.863735737764758 15.03956973372821 14.298704596757169 15.781614427394533 19.440761619443453 20.905100585991917 20.426846856865847 18.796563315108617 18.027032335996655 18.882180562647427 17.39848152065244 15.468658086032269 14.593615705625258 15.809551866587114 18.66913299599887 20.08068216125884 19.966335789803022 19.058461009125256 18.288899755547618 18.56215044415666 18.535473116992815 17.92463611835566 18.174194626000347 16.940036739142798 15.642482779533413 15.953099773348706 17.11697090694349 16.72144634803767 14.264354291905462 13.595669291626054 15.729852877864602 16.565880784948895 16.98154791897534 17.25965326542951 15.839765539288653 14.033285500502199 13.36407751063208 14.098819213881164 13.701931080194166 13.424727825902938 13.412550730628729 15.152362142266677 15.923320818961644 16.6097514700886 17.903511327162498 17.088297070582712 15.682586932796802 14.023364795282616 14.287775890153737 16.484464974236953 18.334594281918008 18.550320718983873 19.030369452589856 18.818636312225717 16.857778615563873 17.477229002194722 17.006045020341613 15.77271989902146 16.826537074446414 15.79739289940348 15.367278279527847 15.724701563900487 15.848770055710943 15.419643424312534 14.192235313376603 14.56201142733293 16.66350898873256 18.268739648240608 17.340916986934012 16.959100184860255 16.38210320109279 17.238655095288916 18.435837160097492 18.160063168597347 16.958252639159507 16.627631874082546 17.980104585804007 20.25455271103291 20.151174067895873 19.194214561920695 18.174315888477906 16.673863714788894 15.429758244321418 15.143030519546992 16.58475161576959 18.92164862816709 19.249161899954125 17.707373593045197 16.62840784002539 18.60928578968571 19.547480530049327 19.090759714202466 18.573146839711175 19.87693181347682 20.524314361148978 20.313765337156937 17.526219657627387 16.246963784915845 16.986228736828995 17.856816657263295 17.517598481419352 16.54883616055962 15.819959088938381 16.105577448954413 16.64193055555728 16.82204776613713 18.62468828911914 19.64213628784646 18.52244735063896 16.547922854696576 15.41202530468474 16.41100074036391 17.44198794202931 19.463229543199837 19.60168260193494 19.159171312341826 19.6106074660916 20.099397870527493 18.901571170213796 18.39111366889465 17.652877062543418 17.382714084573223 19.202970716602355 20.10458111621819 20.396039186449272 17.818091759382252 16.11196489965412 15.944950259703745 17.261139087925084 17.833612372211398 18.605425270694926 17.7611797900678 16.665670164131285 15.084049268815022 14.636060691060848 16.140285708664425 16.499182710946506 17.01482274790476 16.679983911259445 17.63246051701505 18.219719999671046 18.420127686889966 16.846057353430297 14.730305654928936 13.99528343282994 15.83437556857236 17.676232766575094 17.697175977376475 17.503782124925248 16.205409363253683 16.98091287413216 18.304665260219128 16.854923470958497 15.685729904721908 15.712467473938132 16.68271601963932 16.86993558466771 16.807241926376264 18.80545968637557 19.053395320729482 18.90074543879634 19.85094700536926 21.472474230614253 20.416750972049282 16.98170004843553 14.362226496429612 13.39676226467292 14.01885864751949 15.347423231995124 15.328768278664748 14.713465818966236 15.175351950253267 16.375084359904797 17.189714909926575 17.692119235063796 19.907540843611372 21.968369912985906 22.036510357696795 20.571682303045357 18.57945491160586 19.892019616994578 20.176882943157306 20.576404633369375 20.076184610116723 20.389481981246526 21.050895821068842 20.79040683474111 20.440052011421894 19.345310169991574 16.798054324528895 15.874592565030566 16.829889652804916 17.198746684918003 18.161384110392245 19.460885399419 20.171743276662067 20.603415039232118 19.304855173556895 19.039103939924285 17.834095182495208 16.356691825712506 15.517114858057518 15.052734115495618 16.487265015748434 19.147382876376696 19.72584168020799 18.159374727409226 16.578510852743847 16.325665038192312 17.190613635097197 15.943938183534073 15.000340674605937 14.84895246446584 16.63811189940567 19.78705984065738 20.392550281483082 20.552603173141055 20.706070322301827 20.787223444934583 21.15404226981153 20.736401330974786 20.339833023485685 20.081688355480164 19.049277239865816 17.43427173891699 17.015867286509092 16.58530170209084 15.433093014697144 13.766848563189725 14.008610257549147 15.612093919779433 16.073058749838772 16.893334910994916 17.202529048611517 16.88259313482176 15.27547322974531 14.77243482312891 16.3934599441571 16.41702604610674 15.884608693670101 14.332832995719981 14.845828737207942 14.491428490414894 15.569972540545141 17.409704950097943 16.828541135187244 15.777653349121163 14.679061803642936 15.216380900548037 17.23116873564385 19.973912372866796 20.12658013504843 19.820852051026762 20.132972549190782 18.76920249957802 18.3477619172092 16.544137240797127 14.808181018882465 16.022777594009632 15.878551195766377 15.765687743712613 16.110362380705464 16.562331474592533 15.890848528446226 13.997745316939897 12.866558754607262 14.795798914534718 18.39157976170914 19.325134539739448 18.618352478842052 16.486533308856487 16.184941219450018 17.196361567309637 16.536244924926482 15.798074306216014 15.77551553941864 16.38881870980407 18.623938901421962 19.104938032899838 18.725432886127507 16.54969586482236 14.375335053250758 13.875594040513414 15.739015668899267 18.140496942720667 20.081607105565315 19.48712069763468 17.626785445351626 17.654146575315018 19.866234172741553 19.761518905385785 18.409355905186292 18.10613239423937 19.223953816692717 19.55561096796665 19.194434696018178 16.411625420145647 15.563548624666117 16.455998488207204 18.089277234168385 18.92766098865108 18.302992101561905 18.05935639586271 18.07306597054757 17.264398882111404 16.69954942306321 17.553369097159067 18.729867146612747 18.450535213599924 16.515100184627332 14.797156549837139 15.6001528453906 17.5058989145427 19.728651555476343 18.938984686358502 18.06239280459147 18.502832975297594 18.000327739050917 16.436119786862047 17.14042751278401 18.13122192396236 18.497632695891163 19.06602676510548 19.192727294498795 19.632453290061527 18.865508151579316 17.74024320820259 16.99304563518111 16.418004641160405 15.186530943893379 15.821557854158216 16.15400907489015 16.30286236265147 15.778277019600543 15.67055373024177 16.91924822459454 16.70809373256674 16.993471667458667 16.706638526283825 16.602267847458396 16.29921360831519 17.34831691213286 16.722603179467853 16.70394869584945 15.789595727390447 16.908476689350305 18.260191815951742 18.31154405401518 17.82788120156913 15.97172366706895 17.12353640568182 18.8223851784921 17.83307595709328 16.945990107396074 17.145505424011812 17.165792975550342 15.831455585079889 15.055810421941223 16.375406202676757 16.912036438983854 17.816307339491495 19.240562920490987 20.726606646673467 20.29528682146807 17.568778164119365 14.939264103570375 13.74119647850089 14.942168635054495 16.643328763536285 16.09756482502026 15.106687537156686 14.057674221308826 14.255989250818 15.57249009463632 16.510251666940544 18.84780278988469 21.893755083721228 23.022658423677374 22.257110748879082 20.0844855480027 20.747495021400347 21.328271715706343 20.935546486645055 19.868498489688754 18.97424228259344 19.18103544525401 19.543060938227395 19.290939250131817 18.54755216902989 16.565823634364744 15.455033978196875 16.736386686022918 17.819496181480346 17.842318683645892 18.665767499712665 19.120277457524786 19.427632471190794 18.00587107092021 17.809725897166402 17.29435869116654 16.405940822566528 15.268470102466528 14.314335114762672 14.681418658658988 16.03947065139269 16.846337648915874 15.629439978425145 15.572930649232651 16.925527074036015 18.169656934592634 16.91830880592071 16.17771457241109 15.76705123774188 16.262468837767848 18.925369722645037 18.743131354503113 18.25305759166251 19.181907725501947 20.21406490391859 21.13472759341081 21.073284893327735 20.498548286266637 19.68581701995025 18.990492900227732 18.216278565454097 18.140626030985874 16.67939457621707 15.19220544282073 14.89794471460144 16.23910381267361 16.91177318703718 17.053790281636264 17.709804100151885 17.3741691366529 17.913272164446592 17.347126169127883 16.831219889095234 17.50817324867109 16.668480711872345 16.243396649159504 14.999015631501424 15.42968343659967 14.416550834154261 14.813492317680739 15.722699487203046 15.866482535051766 16.550253773984977 17.03019360586775 17.89921118035224 19.08838012982245 20.95460627477739 19.993559366079158 18.559547881464653 19.519888607452668 19.20442105295599 18.898955203079606 17.211478040528 15.030594635713316 15.96892699254451 17.50704747790135 17.505559127063787 17.849739071605953 18.014768086587484 17.026446044075517 15.248561362569173 13.200813343039023 14.575896037872221 18.29296726133466 20.335412056787938 19.643430096313654 17.928922543779162 17.261399489428964 17.399134406292344 16.930455630381616 16.57973797930277 16.43952394860418 15.70743838643348 17.047854539080237 17.57848003127995 17.30088263702511 15.423468660434091 13.554763741098082 14.362674918565155 17.709899824476892 19.363180904230333 19.785797320455313 18.52275570765807 17.930780995287424 19.27697747853385 20.238194461401893 19.336367025291718 18.496621855807017 18.37268025570383 17.470431046603256 17.326365562162845 17.48354903401387 15.851612424630265 15.990795469050518 16.103758631694777 17.498599993180157 19.58195358817923 19.637079861660265 18.429053498643164 18.186326184545884 18.360723244707238 19.002147062893616 19.3348563596751 19.59634998496455 19.350758690772402 17.9641515385459 15.98739731004584 16.891976072985535 18.86755107740103 19.7405472547427 17.439062913906938 15.71425137786923 15.50402014788384 14.101803751060764 13.133720145013552 14.727837562725805 16.528193080252787 16.976868805873995 16.850602618310084 15.893289175984354 16.343045574859794 17.546889374070926 18.242689586476374 18.584571292849155 17.708105751157458 14.969289600923377 15.054472234239812 16.124109632210043 17.752131095934807 18.426214911672698 18.08115418822998 17.865057330710222 16.18038778006893 15.850672864979906 15.967621523734485 15.857616080826638 15.55223394132529 16.923204636740017 17.066872407832275 17.013833881980464 15.961396413645678 16.611286490719152 17.745540354711977 18.377185544207034 17.08857304629689 14.30880191400326 15.04622072780218 17.38410169898099 17.645614040464544 18.33614622581256 18.917228354197185 18.468191212165863 16.677915554622402 15.403856395113042 15.519827651682808 16.17380098850436 17.448344051739724 18.866956881565393 19.56861634615384 19.427644744000553 17.778743647125747 15.476076606347272 14.576657739636007 16.26087770553605 18.489063110672106 17.29575833015741 15.440082451845921 14.262316318750734 14.584477664832479 16.07729258952256 16.173324020402557 18.109141928481378 21.658964611344366 23.145965604929494 22.812875987616028 21.283168923448756 21.527942399461423 21.29287263161539 20.011587886727614 19.11432738902011 18.17803310793028 17.323670241466843 17.7997667373716 18.23984381528536 18.508269909004436 17.689354663656868 16.268615793663116 17.048048168727217 19.086638449313803 18.77886007143794 18.30716440903879 17.351269146692612 16.983635030204454 16.01610758680102 16.528341970879445 16.63983706794891 16.752464996288563 15.709553890595988 13.996196449797283 13.758042425469728 14.772304942253571 15.582906840158902 14.377937760722807 14.703963876318149 16.316639005996254 17.910498133021505 17.563955995736215 16.438444654941662 15.826415947666277 15.531763256961657 17.666090319845008 17.509703107984667 16.694792203620445 17.9432717434272 18.76577619350437 19.566913450669354 19.66946140237169 18.833924685505497 17.739496989750627 16.897729057333358 17.383183063963358 18.19019536912261 17.243577503906113 16.46690004953412 17.43781052937976 19.036607648294126 18.07514758467981 16.547610943458512 16.35495979331818 16.349556967811708 17.605503962868738 18.22262458371989 18.072715054515886 17.265867255615262 15.744008603450702 15.543565527364944 15.73397024125484 17.03881613404348 16.15760019302928 15.378962285452463 14.914144130546934 15.186237908239866 16.39141385139977 17.89720393716643 18.348065040937595 18.63444377149379 19.626377976554597 18.128792160848 16.13094542821511 16.908029745713208 16.604684623636636 17.299098518443845 17.26407795615166 16.176765151126784 16.86194388833601 17.62471900341809 16.998783380026186 17.964340445344384 18.136131972804332 17.699366353823606 15.828473755904527 14.154647282233297 15.998944323426958 19.561704694856658 21.419578456496463 20.76886487748107 19.13226812883083 18.454253760973092 18.037473115445355 17.937452616867414 18.27032408700154 18.184954150461298 17.173738834085754 18.205668416649345 18.47980236385177 17.455411547857658 16.687100843058136 15.049162840411645 15.844278754542357 17.989096547944435 18.256404432797044 18.10931712430811 17.621920169087296 18.408483137874146 19.71775390458904 19.010723346261024 18.18017245077783 18.134500530061047 18.84809469856546 17.35097242179658 16.99664145446894 17.586219238588175 16.399639596253778 16.89716134019949 16.658823061914127 17.505305070263088 19.087366896035896 19.1907515877562 16.8066652168891 15.743008905774172 16.756489610273423 19.103990607969074 20.585483790197415 20.576349258538205 20.53037804385116 19.082307389327493 17.837648488671146 18.51917842074602 19.297118921179298 18.70968395942152 15.921103955587467 14.463623550387396 14.35296355363404 13.462529727942714 13.56719788912152 15.709458435951195 17.428312736145365 17.37031065554814 17.38332819261324 15.76163888602727 15.548297345557662 16.88646807191297 18.611002902265962 20.02712945975328 18.95320699246237 15.207922772471807 13.720847815229138 14.467159600820061 17.031731565508363 19.570295361209446 19.834906485564126 18.52871333072043 15.991781273552293 15.756802144775135 16.427555655352503 17.041242831297478 16.828068721550316 17.687500698092713 17.69035340313196 16.172882121796274 15.341714705029336 15.18419290687722 16.001434251666993 18.25998351616948 18.05775563447272 14.65463029765471 14.028941216734978 15.627695538314875 16.264918085730134 17.35359851283506 18.066942620180612 18.06090155899918 17.93281641733703 17.8578080353522 17.765531034198123 18.32402864094677 19.573918685938114 19.815609277312237 18.804421889574687 18.218626349757404 17.688898872914773 17.044521958843482 16.80403152975978 17.983472824705686 19.231401068894776 17.032822174512606 15.199757858888601 14.774935177322474 15.657630825006374 16.208175095537758 15.168339931374526 16.61240066424704 20.864920583354923 22.986711830920783 22.657049032474468 21.735112110429696 22.15602475099752 22.276733598225388 21.20429608154315 19.85413088876854 18.529696619218498 17.031006557126865 16.896453920330373 17.037492220312775 17.869873383160524 18.581349257483886 18.03030061545791 18.387838889227925 19.175352657034917 17.58464775500239 15.921897778718636 15.189950799632383 15.973181676234624 15.607011319103078 16.089554769326586 16.475402019058407 17.308641132224754 17.40328939245071 16.079035876560514 16.07776662423493 16.976343614533587 16.60383013964478 15.024833713079355 15.281930620182232 16.22295580949273 17.099419754582517 17.698895877596584 16.52547869040853 15.082665945319778 14.179177665728428 16.01481059294963 16.64197092589447 16.09727828472451 17.548941672963494 18.572063069635767 20.19110982585018 20.963706129903155 20.293063729314948 18.15755930570948 16.302114999428355 17.050251400319265 18.376966116890806 18.03255660862477 17.7650892406312 18.83367041182602 20.188443277617605 18.74022755002314 15.841539931864823 14.811863388110014 15.693609767780414 16.922807361510703 17.33120648379878 17.76059115513857 17.76196566632357 16.892351342609796 16.81035950644085 16.960475723071923 17.993119063700018 16.941501796012584 14.912124813817623 14.304838448467729 15.742858375560685 17.11737136625656 18.14383754398879 17.725191877220343 17.055885794898785 17.237716838994245 15.957216620004562 14.329311606607456 14.875003605295312 15.59201726520152 17.708111564666122 18.162293291904952 17.633293291872917 17.805147542581963 17.163588472744706 16.72220769885604 18.06382158289216 18.073228911998044 18.592451536588364 17.19522022295247 15.409604424695468 16.258154160428198 19.320231211202024 20.885111894256248 19.990647185673193 17.980784669260625 17.328344147247876 16.394524253441986 15.767082600945646 16.51733812714292 17.306207264131906 17.194025546715682 18.085610088918816 17.705576128062898 16.67036969407166 16.954641750811223 16.10234257127604 16.24529436017802 16.34469334114317 16.258974361803624 16.88575119970482 17.529552774587327 18.758365587896627 19.40440684893989 17.833840864601754 16.995072640050022 17.699537888793937 19.499286981222948 19.063635999016093 18.4054564084461 17.959049189966784 16.39805273341764 16.923766320982974 16.33651642611061 16.46303347068553 16.997783870044746 17.970675169858506 16.31613595583702 14.86441651213387 15.739139070324326 17.474036281002366 19.72035988230717 20.245724533852478 20.363541750271054 19.140038464433943 19.594854543730296 19.99042108689716 18.32142710372554 16.745726949130376 14.920137228754202 13.982070412612941 14.879288881048273 15.620458987445227 16.255169592275962 17.10001597590011 17.459940818964274 17.413066752307135 18.028223404425486 16.974737476979033 16.040519219858613 16.511471259695778 18.949135396576345 20.591724349569784 19.50975250125842 16.154975315408088 13.655668068192735 13.858135236158104 16.18765889390582 18.477232202937312 18.37454546531012 16.880306661797672 15.91318082647635 17.05724397773561 17.43707241897222 18.022913660794185 18.029200892011353 18.525789843655545 17.860728697580154 15.981563692878577 16.5211149665482 15.884330262922385 16.06172334902179 18.318892382994974 19.110668773455284 16.068689450167355 15.10948760998047 15.830666619526813 15.986382258054986 17.176055764712416 18.28876662497005 18.282149418723886 18.78375585218297 19.29766091928572 19.451193701219548 20.046019002546835 21.037349083514922 21.206497257800773 20.370990650312493 19.91981372087263 19.884599747012313 19.468474279661493 19.06769531536617 19.454819382499636 19.289296315021595 17.33031408069737 16.44220379010776 16.847936305774198 17.10618997161239 16.00801279822105 14.971507095951361 16.749125066508814 20.575346007561006 22.272236351871097 21.67929647555648 21.440384560599043 21.475448070999395 21.612444320297346 20.517052969980522 18.893677549554305 18.476398091366235 18.000689844744855 18.14358597311385 18.128918154423268 18.91790514410586 19.503933213193793 19.804038853557685 19.325658239845907 17.48011461266028 15.160586530736705 14.266039644137182 14.805840698997917 16.260181201456117 16.69557450687001 17.070765280244377 17.177132434043177 17.820799987372247 18.07468499184519 17.434126288669578 17.336848222251145 17.890176284144058 16.366892506298925 15.031448983835894 15.739755832067727 17.123418505292616 17.896265790850006 18.539583823994203 17.625281716267782 15.954652248200059 14.854901544884731 16.65473263369289 17.87220524810372 18.017619640842796 19.812320663790068 20.51959594091333 21.206800980852215 21.30016229019952 20.468312212815537 17.601492583543493 16.18002707842461 17.46322045813852 18.636804924990383 18.746499542218938 19.579466885449534 20.346768351413502 20.145422483145836 18.197046485701406 15.604647340362554 14.814459120306841 15.404157493034873 16.270084655259435 16.916248101834757 17.813761310489838 17.56732549816789 16.721562189184187 16.883224323587246 17.309600664410716 17.767306209517816 16.5899570126376 14.822091811360831 14.45792910393914 15.775031835378806 16.727720551133835 17.18179171680454 16.568617246347454 16.939991777835033 17.826173037849607 17.301118042376107 15.98896302256437 16.387241451857935 17.138629466120584 18.817836964138163 19.471294669326372 19.37264834217291 18.672325749455997 17.154387724501813 16.705583309370937 17.566223945628984 17.849173162173866 18.95618714960865 18.552704460056216 16.992009988110322 16.56716211825398 18.436458314992198 19.79137325782437 18.460098652978083 16.208976093033428 15.719934575885127 15.096134973608612 14.590947578607965 15.587494353080665 16.56867542943115 17.253634845760406 17.215087616958083 15.637844308704864 15.247333215073786 16.673879016962964 17.204862227637825 16.722011964971987 15.778520047619624 15.80221193166748 16.38911424505259 16.784833387801978 17.654162357980997 18.51954742918027 16.790845233226907 16.021017254193463 17.284156025429635 19.36747895585708 19.74439894976482 18.90247658689925 17.563209777171416 16.212275170446375 16.3868804826976 15.694746162817799 16.71915700438822 17.28121450323961 18.476734450379304 17.780027302160597 16.385670606668405 16.26239556138497 16.004509680295126 17.464368397061467 18.22681641430443 18.968675634443763 18.79038656101981 20.56039039410045 21.178872788603304 18.64923288163586 17.48171800239192 16.332511393921582 15.038250406293317 16.54618670442603 18.488331402240625 18.603238184051968 16.843397328036506 15.978247531135713 16.02518293525702 16.4183872937869 16.070920642435937 15.840890523540832 16.2446176275806 19.07875123345936 19.92168146046701 18.769766952437703 16.902537807153298 14.694481420409089 14.432255931389358 16.344145363683584 17.418477483359972 17.51961199973417 16.16335056453537 16.504286024579585 17.932540024779097 17.90188516471516 17.905642390075943 18.10512380424834 17.799989137123852 16.579001912401566 16.984044425382706 18.823537320467402 19.07104907396993 18.95867410839952 19.969489104765326 19.852670251625558 16.743243413805928 15.851376797072772 15.650997743700936 14.735425204768225 15.84609821685294 17.133703030377664 17.17016661998775 18.5162565581969 18.972123199775336 18.317053286446146 18.319996736685507 19.528708181929193 20.44924407822209 19.92300858232339 19.074502774900253 19.523471304317166 19.745099477390834 20.425549859609387 20.42543122059439 18.558613000651913 16.78657152457405 16.54778761209257 17.920983652316323 17.833144905860756 16.49683722842629 15.596194536830382 17.62220018601257 19.93375790151445 20.8005500882469 20.6086136637508 21.38142044086545 21.39549397150177 20.962798297576033 19.02098539304583 17.567708575989215 18.23528343566908 19.0341476652696 18.17681431248633 17.35393380443923 17.753283391753246 18.234526353003197 19.976931087952096 19.680265302164035 16.40578573933331 14.163035472888904 14.737307968698945 16.49669008563385 17.248227358378337 16.861036143950116 17.51010474894455 18.061068731347802 17.885428854193115 17.424351206022155 16.93611273622671 16.10386832604319 16.266562125841034 15.472357762406746 15.831304146018438 16.91852126965527 17.553585428250187 18.280317286485744 18.705385093315268 17.52113393318709 15.428721954023544 14.847820612636438 16.755641010213655 18.570581309031752 19.427973027256556 20.486473576945013 20.280079867028622 20.04949007084494 19.61748129632567 18.991777361153478 16.7957991077533 16.779851583919317 18.722228986597315 19.406560398582503 19.518607514692622 20.623041860626294 19.99837625605377 18.437811971911934 16.541418351630156 15.997745585482999 16.923084083101433 16.970202276032957 17.206368971343583 17.592644295993075 18.62567423436467 18.150395228418677 17.3614753868426 17.563189971690836 18.1986082465339 18.17333165299314 17.012410669451913 16.0210198085393 15.932619320289865 16.784249199591084 16.63681839831122 16.65050202430128 15.222176411167215 15.228525580272677 17.085409452768314 18.589170914274323 18.715967757697342 18.805355933874953 18.584776194035467 18.63448255907308 18.607735424786917 19.341534845900586 19.118383238889315 17.949287944128088 16.725690847735642 17.103970373350073 18.31163864565275 18.526734545203947 17.187211033911076 15.167709925246236 15.126862263643893 17.905531147794406 19.169309282749566 17.936908841447465 16.044828057406693 15.513549027747633 15.5050766599029 15.904770550344965 17.0978246399558 17.225767432398865 18.21443410684002 17.86653687545101 16.07354223795062 15.742352440173262 16.422749464770227 17.73317849739588 16.96511550055212 16.00921345827505 16.235601337742537 16.375636914019132 17.10477411219885 17.78073820351544 18.389073539894913 17.052247041841667 16.934665402983708 18.48918602752597 19.21554667882892 19.55020001004053 19.5649018426859 18.40557882805134 17.04709512792011 16.45956021393373 15.223647204097103 16.41960582238379 17.39945263854659 17.665380333749486 17.5706236965989 17.450578732434877 17.58290947519777 16.68190939746241 17.257780815942215 17.20509879682197 17.589285143587432 17.832326896178415 20.064350829159523 21.497332000020407 19.957828943696246 19.38961316596109 18.098640903409166 16.13197012175046 17.14676634821416 19.030451687374235 18.628720887891998 15.932388626516369 15.253467362088033 15.675392372931938 16.1435581319976 16.444737849776672 16.02076221750979 16.468123120420227 19.132471953609915 19.12051448143131 18.56067039043686 17.70620626161099 16.3763387355275 15.730476382755805 17.070845974540546 18.0949321444072 18.97600250663227 17.292930385960343 16.604284521909676 16.76225140057302 16.12757254070449 16.326523826164276 17.3740526661056 16.319887048027798 15.565985246966942 16.8152563184531 19.24650051689383 20.325393057951633 19.98992525513531 19.87867276540047 18.988801192315528 16.068388520465767 15.51388763585314 15.49788774508084 14.279634039971734 15.588262612196958 17.011746984514566 16.785455858588058 17.957129033487174 18.402786972096862 17.275813575067456 16.37707015592497 17.65855242585409 18.835340424865052 18.297510927834914 16.872999331781397 17.67158163078394 19.35733776517044 21.064679447125197 21.741965102106338 19.837930757170497 18.24892504401663 17.669011673383995 18.176583764426702 16.876155329917548 16.189706176671642 16.33495938006399 18.216415613462424 19.818852147752846 20.48781015710491 20.641394564712776 20.33317002052638 19.254506892751234 18.5546278213341 16.73929469213886 15.666727704981637 17.39451884384054 19.09907144516937 17.530624915667296 17.365431353581332 17.896883989623127 18.17721663928638 19.181664848668024 18.921749304139166 16.325718857409623 14.256979292209683 15.157076482531474 16.512596002385198 17.15573764942968 16.847341916958264 16.970080879853775 16.665930722043832 16.41616722333638 16.96174855706981 16.650097697967205 14.578563629585394 14.164502039993918 14.421548129334372 15.560642413602546 16.706458834759772 16.197763790195893 16.208728461230642 16.782810791466563 16.635566702137215 15.330107858221012 15.561866895173141 17.178948049132927 19.322426819413803 19.58594545653592 19.470883977371063 18.684572439240412 18.526681257349615 17.893180530049868 17.733884287135975 16.951626943219516 17.42041152010851 18.533128975406022 18.425825761285818 18.453722056462738 19.102345029086976 17.027086614272466 15.555747599590802 15.78486428848097 17.202445206561638 17.546690424920495 16.48746889850199 16.55017933049692 17.19148185712347 18.305023554915177 17.72376374224453 16.53538429032809 16.669805975964916 17.227705853557225 17.102347087619986 16.17519081174312 15.733252276923489 17.408299139009277 18.3125086444289 17.34171839950338 16.49048591156717 14.129906287155416 13.301954860987024 14.695556764017567 16.991912460080105 18.428073765603582 18.16064956144058 17.96635244324702 18.266146111723536 18.814088441603516 20.55358685802568 20.57864922209616 19.415992745768982 18.433352579298287 18.44511386193835 19.31537536510801 19.3593652164449 17.80740340058007 14.927647730913032 13.760793984270562 16.028607288988308 17.51196879299466 17.643297333390716 17.36810276904117 16.677061122192143 16.734677968062705 17.557804639513023 17.828534609695673 17.000137779978765 17.78928067587507 17.746259710372023 17.49819924672922 17.479963656910865 16.657635249822782 17.003805685440668 16.231364043683683 16.257915836418046 16.044198054867785 15.690341000515236 16.32343048377942 18.007544960316803 18.6224929924539 17.85978175814187 17.76737851046095 18.775039371027418 18.269259225394258 17.295364256152084 17.56044663949952 16.715798598698186 16.48156203610926 16.901383106022582 15.927665334095304 16.40683407334245 17.206317933815125 17.232752100306378 17.588579882853082 17.69981985482943 17.123702103076493 16.270644110510325 16.729908013525638 16.822657127288853 17.586770703475224 18.444268038534748 20.055751035508813 20.66333657741372 19.53239841467899 19.48418380002175 18.00867798991498 16.651398277054092 17.37145403659822 18.766765381421877 18.375048034545117 16.455855681843836 16.38115785283289 16.445136811313144 16.114768346461084 16.84469617485319 15.703859210514452 15.214246992154031 16.9045034375043 16.502136858719542 17.22015755138881 17.50619792694464 16.783072747611197 16.35356877812478 17.495977253043982 18.730706368289567 20.38400684370319 19.193245037159965 16.868345545512998 15.550827590222912 13.808420148233093 14.458916966920398 16.612993208408508 15.85940751