# vtk DataFile Version 2.0
Ocean Simulation Step
ASCII
DATASET STRUCTURED_POINTS
DIMENSIONS 200 200 1
ORIGIN 0 0 0
SPACING 1 1 1
POINT_DATA 40000
SCALARS Temperature float 1
LOOKUP_TABLE default
12.469344234389197 12.029680937683864 13.484450141785949 15.688601680979215 14.132600588978217 14.475965561453501 13.087452817057372 15.666922992821672 20.211334961290554 17.730891382311288 15.08994477894525 14.038516135023293 16.50454524573048 18.943998095377506 18.339945791932426 20.643828657112717 18.91014700978195 17.82513351613266 20.213608055923256 22.11339427220106 19.01039705231834 15.235948087985758 11.931624936091072 12.013867378451902 13.101657390840607 13.808989275722256 15.223437862607922 13.340823990013988 17.7035764283145 22.04101102990119 20.91210143915908 18.53797995996991 19.796410319449794 21.974702338905313 21.47891337345087 17.89127135878983 15.69253571116041 19.812539202033474 16.844488631718328 19.371025342703934 19.37075059633883 21.308050994767704 20.863558656077025 18.073358102143274 20.301971520190296 22.288367236743497 18.77656469643707 15.363444773918902 16.51710214800385 14.640162758921429 16.78916873579004 17.08579136964764 18.059863366157273 20.320334378961146 21.191376729677 22.35007031783486 17.496599033734356 13.649660414021575 14.434953219923434 12.38304731711769 14.313702002611855 21.534157999036157 22.837378139549724 22.84811660331259 20.20513230228879 17.916860959074043 21.27167302531153 18.687436873670517 15.739046113271085 13.918232971388797 15.569220691277243 19.953882185468736 21.610983704700846 21.69405688126084 19.906668118647236 18.428113475054833 19.12241515941628 17.955992800705868 15.654090606971575 18.200345552428264 16.532515436086353 13.768984566402812 14.744476556541262 18.32350923543296 18.100594148307763 13.197200639433255 11.884448378111484 17.609241804073747 16.277549831232747 15.798608076306824 18.073602449605623 15.072160319599634 12.395482580349091 11.348867660666356 13.51353325345358 12.494862282244497 12.728739224963403 11.78993283718674 15.199440758517506 16.08489341521144 15.670644206345697 19.639669338498976 17.73323577349719 16.055328390639367 12.825789068322868 12.41354725793634 15.145826384785112 17.497294372787547 17.406398177650775 20.316292291485464 20.281461917884457 14.60734575414442 17.567348021384447 17.019872571717535 13.648431199412043 17.639699577223556 13.808958923205228 13.817135213291802 15.768864105057935 15.148777392564732 16.43759061618363 13.885593398135033 13.915651065828479 17.32803483886767 19.796903401627613 15.909293855879884 17.257661417956484 14.806456166120508 17.18745377700055 19.78985751271251 19.53581459614917 17.80565533009963 16.488643037467327 18.785104238843413 23.01825965370483 21.618715508973644 19.633206577582015 19.746443868476664 18.097187508241962 16.013180644270747 13.976113037256408 15.311926180432332 18.798369038374155 20.7711154871015 17.988696215557425 14.018014588237119 18.748862423410166 20.66734907615793 18.763151394160136 16.621397840772815 21.423760642740532 21.722970233862743 22.07934030961502 16.645026390308722 15.600043295320466 16.663817968192504 18.266670596265627 16.85034029872924 15.923970943792098 14.20870535510509 14.7915834828315 15.862945838840929 14.28640114113124 18.59376832581978 21.23978833191945 19.249561501762646 16.56092671851222 14.679063856974793 16.9399794282089 17.079339211227598 21.181912026136906 20.45694177433086 19.142490170814508 19.701749159229763 21.91915665204337 19.303843487912477 19.450582345323173 16.741577133051127 15.312520175083428 20.24309400345036 20.590944341033115 22.373455589428048 16.227649893907824 13.99949931895867 14.66035077814703 18.772329534495537 19.166637539549324 20.814879948516932 18.67160655938561 16.778571463892998 13.859418544645292 13.400957491967784 17.106135434492906 15.912221784538755 17.27158783198418 15.259467716419548 18.870908230867258 18.666696599308143 19.231987585171833 17.731142339497456 13.232188429012822 12.062363443450918 16.25837864494323 19.45383044887833 18.4237059040751 19.300698261432427 16.186125254233737 16.81584425156877 19.355645392236685 15.575253092308627 14.883120214621613 14.860954250740605 17.05675766437052 17.31943208358142 15.421424853559259 21.161989284917745 20.73716947690766 18.92638788549812 19.18134927401443 23.53531709714875 22.377138969497068 16.419195106558373 13.906144011597224 13.025870321429661 13.165244652814058 16.1212376747177 15.697517266271197 13.924890080632476 14.39635521061711 15.974815427332526 17.12590557582995 16.84999356100726 21.113044880917446 23.61116799500929 22.620976574171134 21.385110321867863 16.373153520382523 20.960998559851717 19.88809900237632 21.626469839565985 19.4318524178991 20.805482202763947 23.200340368609062 22.292960360953245 21.528281302554568 19.838566114067046 14.970565624398454 15.312440650579335 17.898309438757735 17.04517302885081 18.93930435899934 21.270197193364254 21.52907393724351 22.71399067259031 18.198620135606053 19.18685942676244 18.033522785878638 16.61639665198975 16.048099134037482 15.095487302974083 17.313300568065024 21.729884874807748 21.264540109650063 17.997180539199178 15.087770793497677 14.108659788757231 16.59571796345429 14.19880674567182 13.815472452245748 13.438715223314873 16.688690959043154 22.087147425328684 20.87757353725289 21.925080391390164 22.25203409750397 21.86572604709611 22.68699292710706 21.232139454916172 21.532434392527616 21.512659898095805 20.500287640796547 17.341563162938634 16.956868311822717 16.492396481778783 15.446872588858938 12.297432726940492 12.526580847043519 15.639981563322301 14.744439976350659 16.63191657932049 17.213898504588908 17.864499495842136 14.330198588353117 13.267096654552992 18.100078947550095 17.969628206337354 17.878907520999384 13.186855057626069 15.33128493536215 12.985361447708526 15.0693884821939 19.619579311722294 17.203260733094666 15.352470942078996 12.96494278319157 13.796792155742494 16.023067374070507 21.871014779230595 21.115438679850982 20.1310724437964 21.85119160099086 18.618475239031515 19.24885485323396 15.808647033330333 12.81737752852057 17.289500711712748 14.748867482003764 15.054845653435803 15.054690429915803 16.779880719087924 16.2386551967494 12.806305588956704 10.544569024952267 12.950878611151348 20.25791471519021 20.44361746185329 20.157594781816982 14.797134478253714 14.183068091032421 17.777285482057444 15.169922666131693 14.447376309388655 14.94715845595673 14.948417301760427 19.63872386894232 19.347532218245806 20.472855948126156 16.11661039647724 13.018245999517092 11.70770289295112 14.641360399742528 18.364529745524457 22.129013871258714 20.84262578555748 16.350590616539016 15.915536140663944 21.835257619095454 20.65997393096919 17.281930691762867 16.804807364983155 20.66036744075891 20.18153210738868 21.006558643776323 15.147491608706448 14.084903567399085 16.27232834273467 19.191111613161883 20.09941743148014 17.642407962487322 19.189067883331468 19.87405981511572 16.768067904625063 14.715333912749603 15.828190010166285 18.40846710429167 19.01582308602486 15.515765050955975 12.966546455496315 14.119769111652005 16.15885974327772 21.343736276526062 19.086627351223655 17.89573027782962 20.079462817524526 19.865000853657286 15.479504261413961 17.798279202863768 19.928510043132718 20.16920102972398 20.269476678341043 20.316853917861504 21.610772283462495 20.535461009664424 18.40610920359219 16.74922481031686 15.41630949352021 12.682736913356479 14.817698550298326 15.180807645215802 15.542039597678848 14.625690025822085 14.17317105907185 17.779406677073514 16.7523254561206 18.186678381972566 17.224818366708085 16.769729331273727 14.6770647256174 18.02632324222785 17.41359845160521 18.499852796710552 15.608622633444536 17.318105252513686 19.17422817400796 18.045536144180616 19.42724374409399 14.969482731009435 18.279063382011238 21.122591365123434 18.440014769294578 15.878472111118498 16.922986762957546 17.39503143128959 14.55513395117897 13.09665658257466 16.44459418616007 15.7816417996737 17.574903003976726 19.062316085459763 21.530976690765495 21.493856943357496 17.466370888494424 14.716041142008205 12.48966614878465 14.788491765494944 17.273061346990943 15.484964132717074 15.744917653503673 12.912870472134182 12.548214596652205 14.723100185690955 15.587233999049595 17.95716267039586 22.506715062719284 24.085579989883218 23.741894111465616 18.588094853173683 20.61940753586615 22.681276754311863 22.131129685443895 20.443238011315035 17.657975475629424 19.06161523619205 20.061024836948715 19.030989994486855 18.76692962089371 15.608494993172055 13.642274027582264 17.113911787788183 18.00060747649355 15.991621144170379 18.161425039491128 19.063441890565176 21.219533847821523 17.74825291713323 18.000114695200274 17.657931991447487 16.221947839390513 14.802035749899986 13.847384832663902 14.056597796596172 15.060052530049369 17.20381481575404 14.384402250590396 15.215693240769847 18.056543152771948 20.464283042842485 16.364982034600196 17.02106667699525 16.073892129131245 14.744500148780467 20.655580771971533 18.310787203390376 16.888182526567277 18.684528396141605 20.522687545128843 22.405297108416125 22.187455887199086 21.72548508598201 20.10796395341904 20.296410798436188 18.348336858215042 19.70408330041811 16.394684876408334 13.926047587964426 13.303890238747227 16.44232488549116 17.171642738519648 17.657911738768664 19.858961232704477 17.05934216827464 19.259987091134544 17.878122222266857 16.07160818738882 19.317771802777088 16.626515447363197 17.676577185148656 13.830867342699223 15.966301430319325 12.521878472126708 13.923788322695579 15.559631345885746 15.276411396008088 17.663618010948458 17.52409043678186 19.234412280147698 19.621216724331422 23.32399264410943 20.806002569842434 17.386012516018763 21.07831510680016 20.866997752996596 20.86020952045913 18.14189129503813 12.93512403437599 14.724941882609622 19.595155962861202 18.717872664768326 18.683000415984928 19.377491124858544 17.1392133513832 16.674507089051858 11.601080290165807 12.601033601646215 17.90297293272949 21.50517690567217 19.448024737390167 17.678961682643475 16.8753364023887 17.41529120629891 16.49334320882813 15.708636710829307 16.574030183109095 13.386582671893136 16.019433482072003 16.136200951714496 17.516510142146704 14.022049151640225 11.354527775503374 12.48740161558445 19.90120009891622 20.86155356862888 21.24171691239009 17.895735009569574 16.705698327458183 20.264343987053525 22.088400377531002 19.235692890389732 18.51815073997126 19.100170190376474 16.02956870247297 16.255839992739812 17.444441862352747 14.2231059949573 16.450475836891275 14.855219771095282 16.204244657927763 21.056658237023 21.013811120491958 18.640024488277998 19.35352023643246 19.703080348362167 20.59104836795241 19.35143721036738 19.802849277177277 19.26737728517296 19.11943894381587 14.122378322304817 16.490355455785455 19.856888270715547 21.753287235189138 17.06480957675971 14.188181682971841 15.48843178314752 12.261062021689783 10.239216662682203 12.91332981507451 15.555055405312977 16.139485415286295 15.715410208111516 13.434332810513716 14.469789868425712 17.473871324955176 18.37058107507793 18.917170744752063 19.157959288056745 13.248224587214812 15.593298974355854 16.953589668550165 19.71382244652822 19.569869827066675 17.735656212915607 18.667650000849182 15.238286762862948 15.155433246259273 15.596884620129682 14.995403276093763 13.571228664368357 17.252151182008802 16.588975934853988 18.004078329619603 15.316107067105815 17.179792140117875 18.80007548656959 19.369357721278718 16.605384324539468 11.438598274034296 13.776448718045996 18.913945197746518 17.593000649455067 19.89315641756408 20.929493018166845 20.3487269059123 16.264689996555923 13.771521906343148 13.763907024443144 14.774518119146634 15.88524922099964 18.661965043211513 19.8677579091075 20.59045768255191 18.817393531276693 14.259613878964073 12.63479952035135 15.585047777919224 20.87046961968983 18.505136033361463 15.514503681471812 13.884015584695682 13.4894839942791 17.581851444034317 15.726772733265216 18.058893577471117 23.044158490584945 23.483504182075507 23.654203897353696 20.7075627439168 21.943517041586848 20.991999051192128 17.921901148907917 18.24588621484314 18.033647086126976 15.742787738451423 17.677654078942368 18.69818552706499 19.70259231597704 18.471891529389115 14.81082612955681 15.331263055957713 21.089238645141315 19.770869526466797 20.13419826778397 17.348857625594416 16.302063582914556 14.341648660728199 16.79555915969574 16.2030004919723 17.542252425770393 15.368737331273202 12.100666190439414 11.612758273942312 12.848044286539693 15.838188532932586 12.658298588746892 13.373140791711464 15.849455942406378 19.35958375329521 18.169999669463547 15.86858597078489 16.714912567872332 14.610059008007367 19.470899388143934 17.828001821227513 15.299974850089592 18.46898294220842 18.377988956882586 18.510730366671552 18.51346582726874 16.760965771526692 16.3664786058437 15.383093902524756 17.053281864239526 18.91123563428671 17.001508074721603 15.727322361431655 17.98201243754966 21.388336436668975 18.043175632815057 15.781986218599492 16.746145917369603 15.077345120691671 17.799126313442567 19.60284468061383 19.567165927239856 16.780841301625728 13.55685437109025 14.07805834967642 14.824727810773139 18.7033409997342 16.352166385552238 16.34320173485441 14.750136221080757 13.896396857789847 15.246201326266936 18.747341246790953 18.60882560587814 18.56901170421745 21.644987758600593 18.83905656583522 14.247564238998054 18.086271676236716 14.93282081961221 16.029947109273248 17.66692857923695 15.333395455292697 16.8041891583513 18.9952092048676 15.337442865460922 18.280607849586524 18.2764233071043 18.231601222386626 15.17595967159068 12.37017784909297 16.471189004034112 21.128095657157946 23.064592405701223 21.985253480199354 19.755572834956055 19.5178929859736 18.869144242886048 19.575274471544365 20.482409244737685 20.18515788220153 16.75241588486297 19.327504636559254 20.31055779922919 17.295626494590145 18.316885316882622 14.084183699586488 15.788434613174083 20.24788224123172 18.61505332766628 17.91606649675813 16.322972560013437 18.044940588747423 21.299022593587793 18.443449277030712 17.960650668517527 17.56070103901535 20.310217782055144 15.459659054481667 15.424530355833076 18.86005314629295 15.77308944842966 17.92273192935241 16.532160923603392 17.825084810936563 20.877171530258614 20.98500108216848 15.248990310276495 14.080750415006461 15.401235100960285 20.554966896620364 22.297941021643123 20.505314670249003 21.94176325672873 19.641021234398774 16.77427463961815 18.27707259210447 20.825022648627893 20.654008548875478 14.812154508494512 13.950034063955718 14.447739930661552 11.817493642209099 11.648393904471229 15.96527258544221 19.26332208176452 17.084942346708097 18.586799835244236 14.131824985649256 14.40698000290538 17.01049403988575 18.364475020223637 21.464712280363436 20.620267858174234 13.52588332722878 12.340896569933175 12.993483091026402 16.678732299832916 21.635055996171765 22.202553925827488 20.759398248572552 14.679721650614303 14.434770709809364 16.334852488602074 17.937939583209427 16.313981541718057 17.91975810279513 17.89068010259773 15.14819229349416 14.17734262535678 14.00412864518497 14.096294768760654 19.73947385263556 19.950245476498605 12.872069348334113 11.978761341496254 15.146584667915356 15.304530224627465 16.891890473961322 17.21962168849028 17.245415055551273 18.1580870408591 18.737843329257714 17.729122537652938 17.909207576110635 20.63842169183711 20.292987026233337 16.91530189710294 16.285765491590027 16.129864520639654 16.59945709170243 16.43327856952029 17.767171103099276 21.46909190162894 15.943182239804134 13.656993215818499 13.105694378784472 15.667795790670432 17.80488612221476 13.58823536867875 14.047955814670564 21.621430511896726 24.236006242511117 23.293575621384083 21.135522702169883 23.155256724072416 23.765590776677975 22.38872917159083 21.02540841484741 19.028720773448885 15.859269691283588 15.713473793435547 15.233168412861728 16.37361607986409 19.41091181085077 17.358874896787885 18.116035243551412 21.59553285292134 18.236908639551842 15.01406576447681 13.37843026915222 16.706641735606922 14.199263876494177 15.480800008665948 15.883402448789216 17.452693423357175 18.9756713486425 15.589693414493063 16.322958944766565 18.258200369549836 18.117229088505443 14.628481978225304 15.658098129877095 15.704609086582936 15.775437495675163 18.462871071650756 15.97129599160336 13.919280407530183 11.674897943508894 15.341279920304041 16.383314741434006 13.778645156563911 16.500791146975565 16.668357669421106 20.523827936644167 22.21958350113739 21.75250194538466 19.149513827474664 14.854910716169114 16.426271649952717 19.407504870725873 18.25446160646613 16.70324655144763 17.91546340631454 21.95214403926197 20.157859973100262 14.693229433019614 13.02347028270147 15.995049810353313 17.703763817817727 16.736424275439397 17.3068832595007 18.917071828727366 17.60652069284685 17.85503831817458 16.70339964897752 19.603971381522744 18.261591310856925 13.86700829656122 12.783471182707622 16.708114623624148 17.858612158807283 19.48384150361105 18.361811947257003 15.310399006677734 16.078338668354085 14.331890884718284 11.935945854906663 13.305509237742625 13.460878281482268 18.82918910410691 18.094553104021298 16.67064209926511 18.549702462521108 16.8156644811996 15.450566417844636 19.606136752285217 17.410528017421385 20.021832504491464 17.16611270330647 13.65754626813114 14.763908172286762 20.58293021974411 21.849804611649745 20.86320595724405 17.388274490117773 17.91004427438692 16.072350981904197 14.38996921239443 15.901485384177132 17.832805034214815 16.209755602845643 19.168629170589103 19.027327226800832 16.116280430742403 17.96207584395564 15.16334922296498 16.476158517808116 15.685089697331403 14.916069818718345 16.624170304502286 17.886723136108056 20.136019305283025 20.56399304328144 17.40149958794447 16.532828877054204 17.139701134545106 21.11339786783702 19.663768492011723 18.841276609602907 19.470577070268327 14.96548405270795 18.125520111581825 16.312447745442338 15.437898130019475 14.82559975749472 18.465744807108607 15.230560019635954 12.513676606122868 15.026693446331471 17.00131042826681 21.57446280488565 21.090369398892953 21.71651060075078 17.85649177768434 20.050145949753308 21.287875944027455 17.387639178836704 15.280147367755884 13.47886659576215 12.580443097100087 14.564458144967455 15.210593286579257 16.096560212703434 18.421673789758877 18.30686496251882 17.385451564063615 20.32746261383936 18.536374345837487 15.831968863443556 15.440105386048895 19.25810968979655 22.306633057451823 21.34737819966508 15.980939980808191 12.015823528240762 12.769250217081892 15.439885391220914 19.90158776510215 18.32643515148896 16.14340390384561 14.241255134963875 18.157528960657867 17.036940588396842 18.92656081470322 17.975125173045154 19.769273140301742 19.564673285171143 14.405808386222054 17.163361717358658 14.117050459709475 13.397331913009179 17.66641671875224 21.33293743674615 15.312948095978145 14.561940148313477 16.630676950311752 16.185830661660425 17.915057226523405 19.882298112591183 18.899479154949272 19.02735055772122 20.107097489289277 20.68332187871708 21.679076768117316 22.748623697360525 22.450712961997496 21.11713840073328 21.32063133099273 21.458271332776363 20.86573790702069 18.744524062180602 19.74361074254045 20.825838870395188 17.37613829497221 16.908586277083597 17.44591741332841 18.21444222171288 15.175784791593214 13.652824893836529 15.315991796935121 22.046328665446513 23.89719712950587 21.377755177034462 21.188119027544108 20.4327215502152 21.723647722147575 21.27161138600446 17.974734389815534 18.807557861911636 17.19798855863173 19.268203786572858 18.99938308487911 20.559034238258455 20.876127431945598 20.724548643418213 20.00684317983441 17.260202030086674 13.837283740593744 12.784328562180297 13.062795363464147 16.34337731251206 17.745248154836798 17.673899897496508 16.196511945369718 18.00855883047922 19.213856208662452 18.011859790226907 17.967108481113403 20.42368663986293 16.311669584320104 13.233785435276674 14.705024005852781 18.024710090064442 17.776114952974847 19.275806477743618 18.548950856102604 17.09175964357464 13.883226510033182 17.589825895077247 19.04415115040189 17.011360205448728 21.541970122270428 21.643183562321973 22.52565915829248 22.31287529792203 22.386831260029048 16.922932259332267 14.587533139841986 17.0535300056255 18.732069535291593 18.00372075824613 19.725392211149003 21.6699747843566 21.324956236580228 19.363966084175797 14.705249309490405 12.908690045325065 14.275331652425647 15.389656388573027 16.18074699083358 18.04697572985675 17.29645961412199 15.36760919550121 16.324031316285 16.654465423534013 17.919784381929805 16.29405731712934 13.334529189378639 13.246669857200926 15.387571697189228 16.88843523391874 17.22320587890578 15.813598715656259 18.076901595153235 19.444290158828654 17.740557964530055 14.32475507421737 15.951854288319332 16.664214387301705 19.943209098929074 21.19466902788355 20.761677048305646 19.421126164270703 15.84835591256133 16.58951439094426 18.377931088248985 16.366857485508618 20.051277082947433 20.838538588006628 18.970663657858893 16.557110584734044 17.654214572384188 20.773630998617417 18.28113664635873 14.41482999259871 15.488639599182916 14.548422687180462 12.710672611450482 14.299802320437886 16.041406066386465 17.073788880577556 17.16878712476046 13.54596976006271 13.287389324331132 17.562063445193107 17.820143626759222 17.08334589313888 14.953810866222996 15.128541136501491 16.694952098312232 15.618075479183597 16.525785932527093 19.782920663618075 15.706272763121873 14.17268552897289 15.656305395603487 20.271610803698753 20.613252202490784 18.55821323029975 16.37101812936547 14.765623055994778 16.846282388004436 14.533631748481866 18.010654076045736 16.56288873530469 20.44041821379644 19.42799335793795 16.016419413330155 16.231890198689072 13.626935876252986 16.59264144944037 17.485249029809555 19.770971182006427 18.081513470789037 22.015150700103533 23.279927565380255 16.74393198661288 17.02195286139258 16.677902970557774 13.572173869838052 17.013321250767557 20.584235156820032 20.867690220344983 16.53633410731318 15.142780253214257 15.470855349184495 15.831672147870032 14.821537615510671 15.871910497702851 14.342932093809177 20.021739826837603 20.57906020673152 17.99915315077627 17.41080410005548 13.402422187763857 13.066225947891049 17.10424683040802 16.55251194558164 17.1041296355619 14.229562885238174 16.547309051791142 19.87696099728291 18.927554180422913 18.318012552499113 18.334806985286725 18.889766479445456 15.984233112781922 17.951437316036877 20.63850753618 20.29768748620913 19.515238228562268 21.39655486455749 22.17330231677101 16.105523839129827 16.54463238343033 16.12147805196565 13.224609980038593 15.202374217955173 17.255883112175557 15.546121013141146 19.14237851846535 19.469692619077442 17.579480733969884 17.818041982831417 19.47814629406126 21.520570697250925 20.671945834626634 18.88668148612229 20.615204498059544 18.971877600407648 20.96012335269443 21.083989963274615 17.09361388388963 15.163214920217179 15.0260956657229 19.06732610523401 19.37509657784856 17.001210084462066 13.92423949672496 18.289336488365738 19.992799767096738 20.44037682160036 18.802981261142296 22.52949726518505 22.696760648686624 22.70582340336703 18.953189198851675 17.076133814221706 18.390592251971245 20.45090709313334 18.709170141696077 15.976008999810093 17.34688436501251 16.30334913606435 21.729003487496684 21.98402521154505 14.961957415856784 12.56828562164657 14.331122946975677 18.36316320682752 18.23158239704048 15.80516745978113 17.841886504507674 20.047394498204767 18.970151681375476 16.59809691961877 16.862952155166187 15.625196986805294 17.372719467238007 14.762297059679392 16.374917230487572 17.946031061403037 18.30280951811914 19.867489890288578 20.579097363840248 18.073766455312114 14.28014049726913 13.184693670437165 16.93906002914932 18.59983775899479 20.015888818962072 21.946050131258154 20.83907831327492 19.94072029506779 19.500096842309933 20.01000720804661 15.070768042505742 15.809006713429067 20.564522477073112 20.790857344715658 19.60369714775853 22.739156850077514 21.775928452428644 19.44472231422083 14.925415303269698 14.309816345712825 18.747440869363402 18.01981163444953 18.095471137623242 17.699668682476823 19.943984224897363 18.626314157746734 17.966523726138757 18.18592890497517 19.6764713658145 19.640565594393742 17.618707872657787 17.20150833180572 15.195136565975371 17.2619970840086 15.839942045869815 17.676338079517578 14.530660401150076 14.139862978504363 18.162361494945515 20.989111506782432 20.001519548118864 20.639463436038632 19.55894020864822 18.83091564324382 17.39093520519768 18.899764638131618 18.72774540736335 18.018366689856077 14.916350070296337 15.441039980439458 18.93079114996457 18.265141378575652 16.177544447948023 13.230551341875834 13.660746512991084 19.715747750878293 20.889424688258643 18.424515237096145 14.548228446340966 14.791800235606598 15.226372901361401 15.077494143588183 18.55761288979392 17.023875226662003 19.947881891792992 19.351301911747004 14.505959817571535 14.734287411061285 15.363530237088808 19.653354444433354 17.595228955187658 14.899197325653413 16.967130137720684 16.05488591405224 18.28687102164448 17.244948023284632 19.426572477059846 16.09374998854148 16.355571669902492 19.86398614738329 19.165880056954087 20.812523064122317 21.571920698998962 20.16117654590449 17.387490700382088 16.78551644055161 13.237317048126043 16.725022466140654 18.170706390961573 17.453064631233136 17.321341699386252 17.53592777437136 19.475956402554385 16.4987794685739 18.201180348974805 16.575640363388487 16.94654905893012 15.650561605210044 19.72927267899674 23.574712049095027 20.261784649800354 20.51869786822122 19.72987466360835 14.722560594069606 16.747783448754372 20.111451295875273 19.666380163469572 13.764810131045211 13.772389361733715 15.006231463253688 16.4330398457647 16.883479464387978 15.931940247050123 16.025414521456877 21.94661964097842 20.186897361520003 19.38493650603942 18.252187892088415 17.103570628711918 14.948488023601739 17.34367067194623 18.03399645643772 20.780495572646938 15.979744564943339 16.330523650791495 17.160063208761287 16.203326133226305 15.92882942637742 18.90393164751695 15.400169634844719 14.413229903987196 15.90503065680143 19.54412643020564 21.450128345498957 19.689418451004453 19.79988591368219 19.93129420292367 13.96853745952491 14.415480077044338 16.074657440570153 12.303252225606668 15.424574103601053 17.7410513083529 16.216171067164172 19.47594967772814 19.34047793871321 16.911910694854427 14.379882070313165 17.602383780877368 18.806952554811833 17.786343530003467 14.80719818085491 17.187723787929343 20.545240073899237 22.859289851565965 23.846077445410323 19.14909830555136 17.369907940526982 16.361420449156974 19.539988894620294 16.39641399010441 15.942577824282054 15.032333543182572 18.029038407958147 20.82727848013943 21.363086440534047 21.572855113626705 21.19867843255807 19.167299631488707 19.373379503256352 16.201271352945547 13.592253854827904 17.124706798396307 20.97345593847648 15.878496346089795 16.758761215332246 16.8646121212145 16.35126382121547 19.054408263234848 20.27426660527921 16.157609901616066 12.432077875733578 15.289352486840594 17.718866870188037 18.759473518597055 16.14292452396369 17.274556169507612 16.55337475691562 15.60683013621003 17.941398534999106 17.73944533260967 12.776256964445695 12.419968461655902 13.040942267478842 15.676031715293245 17.656288548664442 14.600523824857541 14.907454639661077 16.75604824752431 17.77251233851977 14.468429752185363 15.242645961317923 16.13439024173642 20.27140347230409 19.08740468964796 19.361081164029013 17.6461659293547 18.99921501573363 16.91632676296229 17.335543546402388 15.488658918368435 17.482193737664005 18.927442273450108 17.167874641430767 17.58597460278826 20.81646598300425 15.504897475856003 14.057066112552315 15.558366777494797 18.379226842778817 19.271147185867886 16.218528742400878 16.88941566161736 16.273964657047635 19.86452394628543 18.049561199268158 15.33405890801127 16.177953499088126 16.949507648415896 16.276250318120926 14.844841530692342 13.903677581350308 17.955585012910504 19.382815976833978 16.268139637125447 16.664166555461698 12.830247608114139 12.123987558971912 13.178912161958387 16.51402734640638 19.47034296957092 18.663371949809164 17.741722957552945 17.18306779974104 16.822266109345662 21.695049580509433 21.62066078081929 20.647097819559633 18.192767191277085 18.24939934593501 21.04013774577734 20.61538941603537 17.891839912483906 13.194882033912045 11.730256156221218 17.3532729965737 17.625586083273507 16.399441384460008 17.52716412168853 16.501464536640874 16.404822511988492 18.88304221612631 19.44095979733869 15.415023104041575 17.349441791971543 17.90755427713363 18.651790549498635 19.478967808927795 16.108660327978846 18.660484508711956 15.507762901580003 17.195699953398638 16.870531771726593 15.68599239834296 16.215804550511265 19.31826245855394 18.88402003403657 17.476128406536226 17.062657347689086 20.1980973816311 18.815273111007425 15.675402676077791 17.893142005742487 15.931336404088974 16.556700242882766 17.724836258883812 14.076316384941487 15.19005080073498 17.8110885698087 15.568223934323422 16.3188798055558 17.80790363579901 17.805338630207583 15.567094661639159 17.328184200990044 16.697389747201758 18.909228491074607 18.42798888258715 20.889291487974976 21.93313701351132 18.45950449803947 21.050042815315255 18.666880433459404 15.585150415728645 17.14720849384175 20.560631003536635 20.338630286637688 15.757612532398307 17.51765171409815 18.12038523435043 15.099340861205576 18.1993946413805 15.163724069302782 14.003265881822612 18.431295480667455 14.519615306609264 16.529769145664012 18.005080102286207 16.852097290022577 16.366410840719947 18.73395543244109 17.915204976895932 22.199329388205005 20.158633441599196 15.759502561781138 14.937405421282719 11.585105330428748 12.716539174945465 17.3238