# vtk DataFile Version 2.0
Ocean Simulation Step
ASCII
DATASET STRUCTURED_POINTS
DIMENSIONS 200 200 1
ORIGIN 0 0 0
SPACING 1 1 1
POINT_DATA 40000
SCALARS Temperature float 1
LOOKUP_TABLE default
14.530900139757511 13.787613747290468 14.639893184865691 15.691349204587024 15.71821643820724 15.459851624311415 15.039881568328093 15.910626920252486 17.221084466771863 16.628919606487244 15.62346201575632 15.536712172022598 16.57553954260569 17.59507278163199 18.031256041574558 18.636416193993952 18.6653800573472 19.003609817834015 19.84770742117536 20.279497512003598 19.056632820692112 16.714007325360463 14.684541520661101 14.006846842104672 14.324480328763663 14.673643558187385 14.901697202468297 15.335864595286003 17.130071975388965 18.748492672817175 18.767852014636727 18.185444822924595 18.82425056154959 19.73755907159539 19.71109800835389 18.579841988833294 18.020920210154753 19.149216342886547 19.342544511246423 19.72211970909481 19.934620080599878 20.024204654774806 19.559198320017238 19.071936352765473 19.620169085078633 19.67621604579158 18.073848927330772 16.573166542234755 16.220365315945486 16.30897673769972 17.19342798600828 17.896544726344207 18.346235209464307 19.137789460404132 19.67671538836287 19.92499392222971 18.42604083697858 16.40796774133356 15.38242219593931 14.871572426731753 16.12290460978537 18.830440940192272 20.123255239841722 19.69979036557632 18.455070775398603 17.912713547779234 18.24686091115491 17.102403034948725 15.56187092154796 14.928708033927863 15.981881250835146 18.260418986526783 19.506639033182566 19.43963368465856 18.768944402247236 18.23753501705774 18.46034619635569 18.61466779208354 18.32539653117222 18.184490371833544 17.140619531056494 16.17889851023641 16.298909386374785 16.890485283530655 16.40915014603834 14.649583685494623 14.143462307447992 15.543174873786878 16.554887187645587 17.095418402736822 17.12900533216056 16.00568312646936 14.573007008657804 13.996895124013138 14.319427766518496 14.014638627278895 13.752412045372383 13.923985094449499 15.191583277730459 15.951287808408551 16.664802541968225 17.445701835170826 16.841022034086674 15.683330262584107 14.548393546604117 14.969064429530574 16.865404413584137 18.438885989366476 18.682244736108085 18.78444258835479 18.500440823726827 17.33170885595236 17.513843529379617 17.111852976288993 16.325703350542856 16.817061391688135 16.289588941024867 15.85883966284641 15.907462679650198 15.905804039693036 15.336422047988792 14.441461372507563 14.815703896867818 16.509506148295678 17.875013735465046 17.534432233017448 17.08308204833535 16.748717648216516 17.314082840676612 18.081625738029246 17.805776372756345 16.890676640661656 16.706078912994876 17.780257532887013 19.44980788295557 19.587143075873204 18.849137501752008 17.778091434503505 16.434448324613285 15.483380161464972 15.5150442238122 16.88167840425279 18.71239615800152 18.909988245558516 17.828284388642317 17.29094956852363 18.59886971704599 19.350173772357227 19.183393019941445 18.911654903394705 19.569238772419453 20.044154576499757 19.72372737767662 17.70383060895393 16.60498295955372 17.076365996299312 17.732989225465438 17.551144371461028 16.785279168703443 16.240760545863974 16.481383872186434 17.012862261670154 17.473555591574687 18.706776522401313 19.310024758070483 18.381239150867287 16.735320962022637 15.782081892884076 16.43136727477647 17.466458281419754 18.96372805387455 19.229389739001817 19.000420338486343 19.308087419586204 19.504452561804673 18.67901184524458 18.194093510596144 17.786751363212815 17.77379003945356 18.981961366415106 19.78686326094885 19.835324214431914 18.047599899006208 16.614509980496784 16.3106984943003 17.049656089091325 17.532641962121062 18.05010129797029 17.552544583814605 16.695664008837745 15.495658420399257 15.099300115682174 16.034245592111887 16.51521401184737 16.918197158278744 16.87525149184793 17.475579874316885 18.02218029603039 18.07028877043447 16.6686475170181 15.107627003842694 14.534922637233903 15.794425842632837 17.20346535411373 17.397058209199876 17.082213009878053 16.24943434626219 16.883131164548086 17.85817225205445 16.982500481948303 16.030202605826027 16.002788842200935 16.643648146455686 16.853296388901686 17.020080835756048 18.26004388280767 18.65506804187925 18.895005216308213 19.82194459461382 20.82507856355894 19.845735397065216 17.08598256959405 14.70772758340958 13.772253254595674 14.279769550190782 15.235896809837849 15.293386948594103 14.979876240907972 15.445404003913605 16.460875711238142 17.211211492237226 17.83374202511671 19.597885971995566 21.3552988979885 21.59452106382624 20.43263997009022 19.109765113066253 19.80989046291877 20.165604028720608 20.369210698676415 20.10382107866102 20.198210592909106 20.462005754909857 20.304888453990127 20.04785934130746 19.12776865586925 17.187298156327067 16.202524504382524 16.68660495309138 17.19788215333905 18.021425184945507 19.02854201157968 19.671981498083024 19.983458461386416 19.290227629064503 18.898889719985057 17.793234029575856 16.418828011343457 15.515993801075279 15.154801895282851 16.32082913628047 18.421008839162624 19.106712540108898 18.07916282062191 16.932797695991976 16.781805852823755 17.23977927720692 16.309182050988017 15.375743320087798 15.242976857533378 16.666733638689273 19.104641223511177 19.953563826894378 20.09253373709401 20.200183019245028 20.333644955927877 20.62108567257248 20.41552494641175 20.016140770324114 19.611801915280328 18.65070842443257 17.457858045387113 17.022654886811637 16.56844096801904 15.548632650192546 14.332265921841165 14.506763179040838 15.678630140571174 16.30866188281684 16.935041283799137 17.125551588529525 16.715422287621468 15.570256071640433 15.174384605896632 16.014218851026673 15.976401672103039 15.469721872436235 14.594870300193708 14.898037328561259 14.90453376602895 15.724054842792784 16.90454057569945 16.635137586151924 15.871237496533661 15.181867871073013 15.722303550755802 17.480301707253794 19.496135581270064 19.77591728680398 19.5602564181559 19.57759850448632 18.643547004223883 18.095756557044655 16.72457422555599 15.442826794290713 16.020772083844687 16.10791385189036 16.04793359805565 16.308732198967984 16.49876101971138 15.81640006041461 14.347872876863113 13.655788948115527 15.286739384917269 17.98796271868999 18.91794310866108 18.35028329673628 16.951229127074782 16.682182673937287 17.195079315024373 16.797751234481318 16.194083397393015 16.1242845384474 16.755225627128162 18.373865574983345 18.856912068265054 18.33115848485587 16.618303319649467 14.877364261718439 14.547348731543826 16.019023397197845 17.995710847539595 19.47674439015705 19.127299480606414 17.95478023104005 18.039612696386794 19.418775567280182 19.47705271016325 18.65800324456318 18.40852735469042 18.98072906180897 19.23954856681023 18.764371417422282 16.780289923945443 16.006936638261223 16.6210188015801 17.867698833336043 18.58614064823363 18.238780330965728 17.837469809851868 17.721049937349864 17.375781439687366 17.26428624489876 18.009201619505877 18.768304477353077 18.361810652783394 16.78415912742566 15.481175603065704 16.098783651169228 17.695061054065377 19.223386407530665 18.760067599462467 18.04597905513491 18.092529834134684 17.611166078965287 16.639454469113986 17.03901733832785 17.767917454817724 18.169377477869592 18.694040271815883 18.88170685993201 19.088858846033606 18.48388275955745 17.6536265771186 17.10512075158722 16.627786044233325 15.793304794306042 16.071310134522772 16.34061422634246 16.460208648155447 16.129105837104312 16.063499725953644 16.748859892046184 16.666797767923352 16.774952299464566 16.643178272786944 16.641785967986415 16.645236745600464 17.20699343203858 16.604836681874435 16.42810709129321 15.857804256271443 16.727778714386854 17.865539266756002 18.071080620764036 17.481292730156557 16.19718236042019 16.895359997037165 18.131348864215013 17.6560078853105 17.091187991196417 17.1536278320869 17.08853764948577 16.199467418875393 15.695940913526504 16.544610837311108 17.178460823438254 18.027818626896643 19.27298682386812 20.338756763492768 19.806909980486708 17.514787183451517 15.20217474447014 14.216474465269426 15.10134414038073 16.37285259733405 16.05059514953059 15.140574290690642 14.475018700195536 14.797773481310207 15.85008246754035 16.857564172221853 18.969425360992126 21.52655741305123 22.552802483510536 21.887662106655732 20.43409972331891 20.71641258578948 21.021897505094664 20.662821117863302 19.83509573784599 19.198356538410025 19.19577167217756 19.368513497609733 19.191237265657733 18.471662960087748 16.91337940297288 16.01464638245192 16.810200003108008 17.750625697894744 18.06657649217845 18.623398875604476 18.93987446572983 18.994237203544632 18.073411770877254 17.759245141023424 17.22972095587503 16.411779076018753 15.409388227393036 14.622984751601606 14.996840456401394 16.20673033144577 16.79344276163554 15.995145010374063 15.8464546050269 16.774062249416286 17.649521403161327 16.911761802536844 16.134140058629956 15.813041012073063 16.48722961467669 18.442563719848426 18.71095583130024 18.536953697408485 19.21364784287929 20.042076931695043 20.744310676376912 20.72384410627322 20.192839969074804 19.448105529388908 18.68868017744 18.059561360363464 17.796967372205582 16.744934322894462 15.611173000737068 15.360401898090872 16.242666170624826 16.80452832325128 16.91700879794868 17.28757931541055 17.284113824833074 17.551212705442534 17.16706626811367 16.842565389411366 17.095733767141745 16.521714175546304 16.000291868344807 15.240353517970341 15.400282083100034 14.874516050090694 15.093974300922872 15.740028354094983 15.973287502258323 16.416770567153367 16.875230529559524 17.64053099856361 18.810802138451567 20.16679490348646 19.626512199580283 18.676216794520705 19.028990983626286 18.755510373720984 18.38908587799438 17.085728528446815 15.632453218754845 16.183086348145093 17.103436982937577 17.24438737399481 17.573146852949293 17.641047191623127 16.81005785651952 15.19430881248165 13.865820374009598 15.181727770558169 18.199809738166667 19.892504037360737 19.446354292096423 18.049716028005456 17.402884888822737 17.371711432473546 17.02569834614505 16.727941892737586 16.547538186149527 16.317063356582157 17.31818182102509 17.760761918013586 17.300828865105387 15.779412519536113 14.328424306188406 14.896696582495647 17.248678649632527 18.80430025255171 19.308645022141807 18.60057267755504 18.223548395249512 19.056294697350314 19.725085023028274 19.202277547007093 18.543962506525684 18.329902079907168 17.813319807376537 17.644796034677658 17.495660604636385 16.27461294057983 16.120917350458082 16.422006868550092 17.633617259073475 19.086896643758006 19.15363652921018 18.246552124629535 17.8850185232076 18.049543654250133 18.65801723149321 19.2182876408706 19.510426549643906 19.18797617339003 17.88294862605811 16.52642155785425 17.126380164456027 18.55797795886881 19.104546577324097 17.501351541509468 16.094143142414218 15.642246067482475 14.676049734771475 14.098740594574254 15.271833179281552 16.67653484527495 17.153035343866712 17.12007579321538 16.550653734454198 16.809056619214676 17.575596580633732 18.151800800531607 18.350317186183982 17.458301532279453 15.463012959795291 15.19493630171055 16.00701601739111 17.315670972913352 18.03126535603606 17.94008506330749 17.596180043930865 16.421132603151115 16.082941358416814 16.13133646158847 16.127515461700355 16.090417210194428 16.933525111513955 16.99287161548881 16.804722135097073 16.091063562184235 16.541199664916615 17.497106955245666 18.046160267411693 17.094494325844625 15.11881500041746 15.458550719654074 17.05302265369403 17.497933216211603 17.978338513238718 18.384770884126784 18.03958589663976 16.82858434684817 15.947702431169915 16.08517842821896 16.721722685549178 17.835491057935695 18.962918202265158 19.497695467192607 19.16876441905013 17.681373586686757 15.86188528613523 15.182595770847751 16.386878979542224 17.82193520541599 16.977805329143848 15.485226951937351 14.582440742646822 14.88080254799595 15.885170035042295 16.383270128916248 18.26315997397041 21.257416974185862 22.75284646766755 22.50399211841999 21.41939320308607 21.43437825797898 21.251646438902597 20.306156012611286 19.322566384572017 18.398167286205886 17.75677652482541 17.948559871095558 18.216237910724466 18.28871211519518 17.61130699070395 16.743977909238698 17.345501558341486 18.57565640353312 18.421191500590876 17.973474096943637 17.38384862408799 17.100163701319797 16.460998713296707 16.63550371265897 16.710438475761926 16.63230845127168 15.803589442328644 14.584915070592595 14.442000713897578 15.237458505157026 15.661372362992015 14.901451889625836 15.13125185238378 16.383169598148438 17.54887147422396 17.36044452099716 16.468409339333274 15.812588555174058 15.806816975130623 17.311616999840638 17.488876737349706 17.16555222997163 18.07453517251536 18.96511832833581 19.75918696200385 19.88972040249507 19.199859011063115 18.117684377148727 17.314825805587056 17.507174360600132 17.95098264696666 17.303041202252476 16.746717242671703 17.38018520944362 18.424447105462455 17.86569577988465 16.698360383348803 16.38868601029815 16.55592916793928 17.428151360391222 17.847619225426005 17.755063171566174 17.233108604788683 16.194995116157383 15.874648300278356 15.954750139856715 16.63706213192437 16.0229933762437 15.327796123579498 15.086474460131964 15.495868005211062 16.523135558319215 17.633986998494755 18.133287965530865 18.52941681477035 19.107304111948654 18.031500530165342 16.638511177089903 16.91430392759881 16.961452690106025 17.44486431134579 17.2549872128664 16.501729894085102 16.88960125064023 17.36359566757192 17.207872802964395 17.826472434637232 17.982941281934504 17.49967179071425 15.974191443859578 14.750921139990206 16.146967187758406 19.074703976020487 20.745210125214353 20.293685425465913 18.9102141801334 18.15155491054595 17.73580783830329 17.54993628598397 17.721418718607534 17.686884884800577 17.246867350983354 17.91337519544048 18.05689940968848 17.32374402032573 16.466747489386183 15.360726770397239 15.90206225016326 17.456516442778586 18.02969210466058 18.103767152886622 17.90370807707642 18.45209901300945 19.30996076577774 18.950907198660797 18.29453498980118 18.227456375921165 18.584667071810514 17.75758076516887 17.378737269815556 17.4135021871733 16.56788160378062 16.693515277943632 16.695510535402796 17.46336132511751 18.640135250731706 18.713858739755334 17.141851837840974 16.292300977423473 17.023812321045657 18.72654273183389 20.028238703819472 20.2993319230184 20.10555847691986 18.963075810400763 18.095319354562392 18.491881648973813 18.89309470933942 18.27166480610161 16.197623091606204 14.840190078273352 14.561261949558192 14.06637426545899 14.239497314269634 15.746661534268052 17.071170739319296 17.294858380562193 17.18929601649721 16.167057119023703 16.001272685647006 17.025384957857145 18.518346451994198 19.483904560536914 18.45017368723825 15.642371561155182 14.293265235790034 14.9069444122809 16.97065431422163 18.87183546734436 19.104823404260085 18.03644633739455 16.34130245808875 16.09364721466161 16.512854108504335 16.924843531453885 16.96982936058804 17.552084604082623 17.487268153672638 16.379625909063357 15.726645891984893 15.681259739743979 16.469518433596605 17.939897801115112 17.62723172505467 15.24553392296724 14.692070927651391 15.788478966931443 16.473575314582718 17.386662102375745 18.05312502579405 18.082063566711675 17.877404923516483 17.73576898446728 17.78441229450157 18.348062898078 19.335341111393806 19.69036966821985 19.160288329062627 18.612278149445626 17.97660676029565 17.252928440442744 17.046351619147526 17.92837651365698 18.62116430304816 17.119551083544465 15.621084910133975 15.190551810875965 15.675139387465428 15.987968752948328 15.683030161541156 17.251167268548848 20.610210460870828 22.499717761434876 22.42240958869902 21.79376130032586 21.917680750132398 21.847632384277944 20.883437877410163 19.631172155891225 18.47981894077294 17.433358024620684 17.27031133792698 17.45540599623854 18.050594239525356 18.410718252963786 18.143069168628053 18.35570708253214 18.581023641054518 17.39553677578355 16.174862503238405 15.67631772232076 16.059787423513058 15.956644327500557 16.3002639578971 16.662652594917375 17.1751244770396 17.064079926273056 16.157497170656846 16.06363395948557 16.601267649784923 16.26827458563266 15.231836527136325 15.425306116997206 16.35869530474115 17.235776320364636 17.537438587874426 16.61526920898432 15.413897330794786 14.881621362987833 16.181835061154377 16.805865670650967 16.766595366475972 17.896532467140158 18.93799780165239 20.116741688861485 20.59889140938056 19.892293485872433 18.113909125036315 16.782134148347627 17.258382135828235 18.16022896517854 18.046318155631194 18.016848204617123 18.822011374514016 19.554439361267836 18.341637990955952 16.194420141437828 15.33832701676472 15.857580676264691 16.83652734421003 17.372400646301053 17.711942429928367 17.55160127643502 16.851936988536313 16.714025031956503 16.937721843858796 17.50164251435149 16.641299293847947 15.179460428824068 14.732229542992581 15.712121601773756 16.902502803191418 17.746958303814328 17.609140852944247 17.34661408848966 17.425146390384494 16.431316289949475 15.207695537716209 15.47919559831101 16.177810275788985 17.60569792287892 18.055793061284273 17.743330493840233 17.694162755682445 17.261090981830517 17.010420562918434 17.822667209157917 18.07612538235178 18.230017160252377 17.118256152517112 15.835854646691484 16.576671753733997 18.98845938865594 20.37200144930347 19.684567248904987 18.068159741725133 17.237377274723315 16.497748356938303 16.107253893464517 16.632431889044504 17.199973354094638 17.306980110375914 17.78973351599433 17.444384271811312 16.75331648493478 16.726354157096036 16.22650309008438 16.26478599023855 16.46471899291937 16.570906753222836 17.011822908297017 17.5457029331783 18.47744338808251 18.980558575776172 17.958826340002826 17.297259764467924 17.865978078915816 19.06457838579976 18.86696325845233 18.303818310296474 17.72276888983102 16.649751405682277 16.71302174990416 16.41270868196539 16.70631855012916 17.342010998037335 17.83530305430409 16.64111740461226 15.58186872816273 16.14045866674632 17.569087557011027 19.271446594139814 19.902046328246467 19.976278174192455 19.27234618294173 19.46049224863061 19.643219926745292 18.49588145836829 17.096108409671885 15.440217307567906 14.528982739186572 15.060328008981815 15.707179771013417 16.22514196911814 16.802675073179405 17.16833951354586 17.260744838228263 17.478278150869315 16.726514918614395 16.18234125211626 16.81799977375536 18.76602003654431 19.95867732528872 18.96493204055597 16.274680156234272 14.268760528808238 14.408216946076301 16.321894271036943 18.125620185812977 18.217647988750834 17.09030714389798 16.313510778922005 16.914333997497007 17.344015161417506 17.764679467686435 17.89153949068232 18.108820346229667 17.519204737352158 16.306546850497984 16.566069722792516 16.379571238779075 16.76359439953058 18.28637057024446 18.501792859835223 16.266297838449862 15.336769423297982 15.730840151514885 16.020157154843 17.00900043969345 17.940341632905373 18.157447238298957 18.58870989259959 18.95503089339502 19.0913318351281 19.592018090892893 20.447044532964284 20.69907909070101 20.110603250339313 19.62113496794495 19.46099955839254 19.165731501681208 19.01675101913569 19.265913975670994 18.919699257627755 17.383575052143982 16.513369871892635 16.686114844917938 16.80020103266727 16.10453767479364 15.554120285251773 17.17709939101572 20.220141227199964 21.814571367046813 21.686815741633126 21.498736972679946 21.51008418164658 21.375732465183052 20.307090156482555 18.986206770004813 18.44824975615329 18.07523532930545 17.982249051691266 18.00595737731297 18.5974687519088 19.140688543296672 19.420508019781202 18.99942755150775 17.48465605770467 15.60346293510395 14.826691155416032 15.241142569784015 16.22230015290911 16.588363543653262 16.96422854915697 17.23431413441014 17.66300597944053 17.733198753245038 17.22069034490849 17.03785165082478 17.219920293924833 16.270266657242082 15.420724833575026 15.929478760094923 16.97989139208695 17.76961497644691 18.16611884406793 17.32520813603914 15.895921974356316 15.21498384800977 16.534185430810886 17.664552608848545 18.158914987457734 19.44329413243975 20.184849587278375 20.774355814757076 20.814657933463092 19.924022668196685 17.784576043453914 16.705222718269237 17.578194175229246 18.537829356805318 18.81943135586812 19.415671589660512 19.888712851267453 19.588096082347835 17.949949603630223 15.989804870885674 15.334629007047308 15.725556530662335 16.46360226490049 17.098909332747354 17.746721667987707 17.572851574078268 16.959896122153445 16.998989087029088 17.351630722093958 17.577403923576934 16.596716557613195 15.224503360851914 14.927089732070042 15.878319430362913 16.694101642005435 17.065135658744282 16.664980485932144 16.818830683950875 17.44401526195056 17.18104876782519 16.385475954949996 16.596606624147853 17.260228681235244 18.482491602035072 19.051201995975077 19.029985697967884 18.495876884558495 17.417526006347632 16.95453295855616 17.53551542168482 18.013570215304593 18.597128084766577 18.008053238446582 16.733258814155196 16.66796265107089 18.34233528427437 19.422791512262997 18.455815811709503 16.702415092879406 15.959293384858928 15.417400130889625 15.19717519190997 15.950347536960951 16.73077086002288 17.26917415378719 17.208938600549878 16.16416951992856 15.796453535501998 16.576808837531132 16.95708790356393 16.62090322616987 16.037762783612276 16.03259977207475 16.46692303030985 16.990621885222325 17.787526919770155 18.268687158836997 17.138912424537292 16.622039774910185 17.620910585449444 19.096039306284506 19.404761246097905 18.796341766597855 17.69571628068188 16.56622472154277 16.382529283249347 15.975416614052024 16.63199584593337 17.31781562589908 18.02818206892138 17.472579297360234 16.522758443521305 16.39901585997993 16.54220997370939 17.648557882028594 18.346284794554474 18.859935672638912 18.975520733826173 20.174517429313408 20.578229966800848 18.926592999893643 17.661572148375154 16.41617209172823 15.471077418063341 16.46641556870968 17.865937350332512 17.981237989813874 16.859989289830494 16.223508039956904 16.23190420369992 16.484964751706695 16.24435967899987 16.031104973714395 16.64448325313417 18.748271317640704 19.542465016493807 18.661149138167 16.88069152488058 15.101875411060172 14.892088864863336 16.35302714967312 17.496985953138253 17.63783541379121 16.675135167877425 16.62478103510202 17.440046387577627 17.560907769045443 17.68689868926705 17.87031125591674 17.559229071508565 16.706174467218567 16.92807326715356 18.331612647170815 18.740463208387197 18.852483004215177 19.525526064712423 19.168566011746087 16.856863593348773 15.840317699860995 15.581893821906448 15.155079610121108 16.038343307388377 17.100557320445994 17.41908068508008 18.331028688619934 18.74218107440228 18.393224827471638 18.453778420502303 19.397696851926987 20.082522365487442 19.690016606755048 19.05161236965995 19.27748805741009 19.646817410611252 20.181095625896862 20.174111481536492 18.831447290441982 17.319989382696537 16.92470143400143 17.584864861733582 17.404900197945498 16.46993186009451 16.054848601407414 17.67100987132349 19.76886920941453 20.769711328879545 20.842464732724537 21.130819320282964 21.01445915748497 20.476315149572464 18.96566152663885 17.810943080695058 18.165287186517602 18.651255460969086 18.095775324335634 17.639931129250737 17.977313387485577 18.543019144161057 19.533211675849874 19.08620481907527 16.679774352097045 14.777783287118565 14.943785617377282 16.143909783973548 16.907498681582098 16.924997454867366 17.32921561227236 17.643436718709655 17.615105299072304 17.383760720630768 16.891323367641302 16.193454187416254 16.08602398278464 15.610208596302034 15.810233890549243 16.65611805466434 17.29103881600486 17.87220482862416 18.14519758294869 17.246333932713448 15.709227662914337 15.332670063253708 16.808624162870668 18.405919097255715 19.25318739042828 20.043888565447475 20.0518991725579 19.930198953203018 19.55225334875291 18.81707878061698 17.254668965557073 17.096038125425157 18.366421316616265 19.06651920787091 19.348317370913165 19.9707352152206 19.456169581603493 18.218056226526283 16.83759875278381 16.297205789422307 16.62267761494784 16.712495205927116 17.007556083868412 17.50893601294682 18.230168262810903 17.937494967408078 17.311478014797466 17.40517515664912 17.83633173684797 17.790355024421203 16.865690708738903 16.008149122601246 16.074033325606074 16.72699753237153 16.75204908204484 16.52895149727918 15.491548883087127 15.472823688992253 16.797613018871402 17.968009826863984 18.2390194810657 18.317027495078687 18.327986627430008 18.595930066458518 18.84403438700842 19.351771973843075 19.097159812617758 18.06945853538795 17.21102410265219 17.476613020664296 18.262587823921823 18.443673607258063 17.34476401460096 15.694387850175081 15.56856909050334 17.51206917364253 18.639634306265968 17.881431669350263 16.473232907209425 15.833645412624374 15.726805480413747 16.07229698921387 16.871211874545974 17.20866804239836 17.835754817059986 17.566815365357982 16.417421125027563 16.08475142884091 16.551080172165037 17.256680158993667 16.78539253317067 16.15379650426577 16.156389935952834 16.35341651814076 16.967701255849285 17.745125068163517 18.1640203577007 17.31523862279538 17.196632316355426 18.266112553855553 18.990917570228167 19.18016914015394 18.996304017722085 18.02055375841116 16.964139117441857 16.444368307294774 15.74920756350514 16.475008181460435 17.277479225642534 17.65043504815242 17.58055450714757 17.35353505990727 17.214138143583817 16.747821356083023 17.159352256424967 17.36107482263011 17.779675302633276 18.315780414594627 19.965069595940165 20.869813398565967 19.806294557888368 19.004117067453507 17.75698169694836 16.470886733223345 17.194531723358903 18.522619699388947 18.215064153404064 16.39727810045937 15.695310784117686 15.861117708015712 16.174184706848546 16.352458567856083 16.093647113287933 16.57315847307128 18.42772539317731 18.744438079438982 18.334070628953683 17.481957608089807 16.325944786609284 15.930210087189527 16.991510387354236 18.042440119145716 18.619759995378246 17.527005070558612 16.772689771715417 16.652380580027874 16.192093372916858 16.408324655299126 17.089782231364133 16.505691258871362 15.984575692046798 17.142149404399387 19.07389475036377 19.99535061238993 19.9032387215368 19.711003795850388 18.75595793911259 16.579213895851566 15.793652124417713 15.513933702602861 14.86027529984401 15.78743661097185 16.852462885526688 16.901530324104826 17.67954437138612 18.102154338973552 17.425275237206414 16.931768069441993 17.83954843711783 18.767586274772015 18.412960241880377 17.445606035916985 17.9010087848526 19.18595642577596 20.579586112148522 21.139867601377876 19.894252963565695 18.520214403696713 17.881953632433163 17.85895375821748 16.91688744324313 16.340613267773442 16.61539784077019 18.135955672032562 19.54122459791469 20.244619641222922 20.41188495079138 20.07320185520119 19.186976521235266 18.37688553789836 16.972261998139775 16.256656746696343 17.446826144071167 18.61673858108632 17.82851532143058 17.70803232052659 18.197953104677683 18.572491837297346 19.104688633960876 18.561945707867295 16.456848310242144 14.786914284241634 15.178498854514075 16.17182722190327 16.778033654758584 16.815311846986443 16.866500795344365 16.673271953211714 16.544943973306346 16.775004177231132 16.4168722542481 15.068797869671947 14.690745933084239 14.84495092395891 15.613148195391641 16.499333208576225 16.43163361323353 16.454792158041737 16.742210117117846 16.471512627483136 15.58106934337462 15.803239489085875 17.28827832384215 19.015492468399344 19.498694105252845 19.441686442282162 18.902480484740426 18.625038731209994 18.185747296825813 17.894493439722414 17.323093671128824 17.579005443706794 18.399653641746756 18.51170690343649 18.517589120705953 18.67760674936642 17.251480687511926 16.011810732130726 15.996300528227183 16.87252518597565 17.078542678359092 16.468478125151087 16.547068089958305 17.210216717971388 17.95160192535196 17.607400693487875 16.811803882080323 16.83992263327416 17.247816682186546 17.201966067280768 16.511077774325813 16.19502589142212 17.30530657990537 18.018685216052003 17.42511834538616 16.45773218919203 14.601311908177065 13.91188212266776 15.098581375948383 16.958953076636842 18.057407310182782 18.017231781356255 18.06181278145201 18.55148024607041 19.214867235771063 20.297555974500167 20.215591547105653 19.22472349389021 18.48921706143467 18.46699988209802 18.965582259541797 18.985935314114588 17.73412669976915 15.46306203730903 14.437665491363596 15.927043638779516 17.369470132945914 17.730505609506974 17.41051458898279 16.827064218651362 16.79590276701308 17.271681875447012 17.505205821913457 17.25539836615535 17.7484542076765 17.630275696418348 17.282644170672857 17.121790014389507 16.67179186542086 16.723175183260228 16.27012341681683 16.112254773186294 15.872530101164752 15.70765974024916 16.332942685576306 17.696062796334292 18.36620771559176 17.934870694143658 17.882400402556335 18.45206772741001 18.18272587825689 17.57138048846819 17.470779666672776 16.814755693719043 16.52605935423652 16.77378337450472 16.388485060197198 16.746427582047296 17.300918887996634 17.560347133791854 17.775510050415033 17.609490229422192 16.997822777460712 16.42539529058607 16.670592891782775 16.840927298394217 17.467958129913175 18.42360173600992 19.761330513290552 20.24177936188042 19.50021794747067 19.04042842650555 17.813040375210324 16.86166973883042 17.376158652174418 18.304641325609598 17.95060931445683 16.609087649923662 16.27401244547231 16.25665079332412 16.224312642381694 16.56063863835627 15.844242616358741 15.57312216994757 16.69715045943798 16.85270512005205 17.3298163905615 17.387220314895377 16.77282966419117 16.45624153625869 17.378950204506566 18.684828403599848 19.836246101176997 18.93723568904955 17.126105859601683 15.825401853596277 14.5541666701211 15.031429450545302 16.480850997595066 16.17697