# vtk DataFile Version 2.0
Ocean Simulation Step
ASCII
DATASET STRUCTURED_POINTS
DIMENSIONS 200 200 1
ORIGIN 0 0 0
SPACING 1 1 1
POINT_DATA 40000
SCALARS Temperature float 1
LOOKUP_TABLE default
14.39500324781323 13.62341256107653 14.554662865282593 15.688154835033739 15.660817687083844 15.40968907578528 14.925782525595135 15.899301678322978 17.396122677690123 16.693180820519682 15.567103339244172 15.440448887287783 16.577331420948198 17.67880871694725 18.083320419385156 18.75122270391927 18.69174713478868 18.979084142414386 19.893174744792173 20.401355780239413 19.089915012432243 16.602123145444033 14.484624336825835 13.839210363831668 14.224808668969525 14.603963033295122 14.84312770417295 15.215636969457114 17.18058063745023 18.962953828579366 18.92208359968177 18.206763240116967 18.88943704780152 19.86755661274791 19.810416049260194 18.517595917204797 17.858695581464385 19.144238353834563 19.237953075879023 19.683472242298862 19.935923562478134 20.120218302531992 19.640831263630353 19.05934297582137 19.71792601749391 19.864749908008537 18.121710203304687 16.517696663397746 16.19931023347651 16.23035279997158 17.180398179570137 17.899692168941375 18.351899183788092 19.222712253829457 19.78850005593626 20.094059018880383 18.424043474459374 16.257184602407726 15.27275902124016 14.702428171294756 16.028861273044818 19.00888452342281 20.363533678186297 19.913229947998026 18.55213733207774 17.953467137379082 18.42684536425956 17.183394148764332 15.522887384307099 14.8199699834955 15.925291919068602 18.380732523267948 19.68171660872728 19.595508339770493 18.85507478770749 18.253366199559263 18.48834331322672 18.59882142424361 18.226976422232976 18.181909277316056 17.078844178312654 16.024071391195744 16.199647239154416 16.949755051832458 16.49060706869226 14.531091789415896 13.978040926950836 15.57660001976793 16.562367917561918 17.076029248627293 17.16540349564831 15.958055196374527 14.411991503219912 13.810837100475297 14.249962927234563 13.922976025934368 13.648034019256444 13.773138866236769 15.173288952328527 15.939968434869026 16.659961050497607 17.578054074932936 16.914835391982585 15.675015966378226 14.384171515656753 14.762808292898287 16.75622503450401 18.41795472000309 18.655343858620817 18.8512781221119 18.585405939421737 17.205654225115794 17.499644518639744 17.075522678271703 16.167950433370855 16.80511387983153 16.15149385955955 15.71377200209613 15.845656164200637 15.892562643306261 15.348895179584371 14.358615884611067 14.735476186280785 16.55029269737833 17.986127276661833 17.48959439711395 17.037307563579063 16.643885855689796 17.289831789539658 18.181070958674578 17.903335176638095 16.89999485146778 16.67719383162736 17.83553962869977 19.680990600957855 19.760176489822307 18.96047665871492 17.88994389357456 16.492477863252983 15.454532960958856 15.403693384557526 16.802697051855578 18.785049557041166 19.00492650722507 17.782749975474307 17.104225314413682 18.597577291184848 19.402086339754337 19.158446591885376 18.825330304889007 19.65180323985221 20.189735501053796 19.897256556401164 17.655783426291134 16.49363565948161 17.047836646084257 17.77037992172143 17.549038222470806 16.717123349355475 16.119781171208235 16.37157742628873 16.899776155939367 17.290920196434538 18.679872545660157 19.39937886776134 18.41677032416391 16.669535481999684 15.663451000897416 16.41285769187836 17.464014661058574 19.110366996243656 19.346546074932256 19.058626535162492 19.41157635157373 19.68213152949282 18.75044840401282 18.247725167603566 17.75377700780925 17.672959983348502 19.04398905096891 19.89008966410043 19.999033086447845 17.993919052260377 16.473318764899908 16.203407582075265 17.09873041586012 17.615114743114948 18.20492009314888 17.61251933631745 16.683711113213246 15.371705352826638 14.958946989477624 16.054014939681345 16.51768574633916 16.948412677595297 16.829078555048756 17.51338077226718 18.083095166652107 18.17742632604814 16.71588934672407 14.999403937579203 14.378951151735036 15.801408373921728 17.338256336637514 17.491181879172814 17.198091713786816 16.236161724114243 16.919315533641186 17.99689683473005 16.959514704290815 15.928213452506888 15.916240500314519 16.649913170553923 16.852875364758994 16.966985587058698 18.40745687632304 18.763826351065994 18.898408701538234 19.843843612046182 21.017471824283977 20.013336670213 17.057247727942944 14.59220089373756 13.644943150766073 14.198476436228768 15.26096174354245 15.297387217750488 14.89845249313726 15.364789337321286 16.437122947705745 17.206130533871207 17.79771332939087 19.68830516564205 21.542308367133316 21.73764548005985 20.46989021579788 18.961049990836248 19.82198888703899 20.17203905883393 20.42458192203139 20.104465714194554 20.25985632751307 20.63065581519152 20.449555300646896 20.169390105531683 19.19719285687608 17.081926182753197 16.099463521164314 16.714521666443616 17.199198145946827 18.060360078604962 19.15191955887977 19.82328668139763 20.165650865624727 19.314240914388446 18.947813405430036 17.805546394121244 16.393245846720262 15.503655967465162 15.114799794879826 16.36263277411094 18.630247551113612 19.296433865029236 18.11176380037459 16.83643419751403 16.662647322092806 17.233653717516933 16.213549958310445 15.264229879756963 15.127030267714947 16.657412423354888 19.304102526482936 20.099331017216798 20.233135838544644 20.35206749092546 20.473800419245812 20.781659418918302 20.519158801926302 20.112466015366827 19.750050068993428 18.762996029341807 17.452088766906403 17.02071729982521 16.573326708452242 15.506437989315113 14.159683159214014 14.356623703974266 15.653094677350095 16.24915905850987 16.927382367358195 17.151858777734635 16.757804444724957 15.483510591860878 15.060939389414342 16.11550449391061 16.100894704802084 15.577430660409917 14.520212911077957 14.87157258229894 14.785636047193957 15.680059214761496 17.042903027830285 16.69506561664854 15.843804469215586 15.034655273335579 15.57049650949138 17.414093463650342 19.63352839674964 19.88440251086035 19.646778828050515 19.742497996556743 18.690689674275955 18.168187304265803 16.671319882879867 15.25500477409737 16.000880902416085 16.041893569289424 15.963243200430998 16.255510663643378 16.518776876768385 15.835612136178202 14.240613632927934 13.42027649038723 15.145065042220054 18.09900259922164 19.039635080211216 18.419247649595412 16.818734043814192 16.541977221790052 17.188351691416013 16.728185882813893 16.079627786135646 16.016956553524842 16.651799784011622 18.44590576089979 18.940021250626867 18.442226373405678 16.599316580513857 14.724554672776563 14.349313593939359 15.938974792874887 18.044062760629455 19.654289213340167 19.229629254252302 17.862532626804057 17.934873156732873 19.541277940937828 19.559875701662193 18.59146093965627 18.325447917007306 19.042610043047922 19.336178425481137 18.884437264084408 16.674315465885734 15.873809482673614 16.566760130081942 17.927629683600944 18.687918400453192 18.270616126997744 17.897727420921782 17.811661395420916 17.341884911341594 17.103265343046775 17.88189338248807 18.759429524306746 18.384467979703462 16.701609321112745 15.2741741430641 15.949679829109883 17.65227316213239 19.374248904367366 18.821871233364455 18.057391289338092 18.208333800755 17.71502450142035 16.582497730396085 17.061265982515543 17.863608199811402 18.256616029281204 18.800306273873687 18.972333109640946 19.242827650730423 18.588585288565714 17.673108183627473 17.0716600443304 16.569078094998698 15.625716822090412 16.00012421959494 16.29127109317895 16.417420295404813 16.028683713085723 15.953497440502451 16.79283348839257 16.67983941767194 16.83021479769161 16.655914924662316 16.624063065408798 16.552171353147873 17.24531423404167 16.63530329889284 16.49564896353175 15.836232993569785 16.78223558889456 17.98834142558125 18.15878868766131 17.578352676320744 16.134129821604784 16.956665211586554 18.330561671252788 17.712381374665508 17.05750886636217 17.15488156708651 17.10994184383647 16.09197683467912 15.507574496352845 16.48355159218468 17.099905646959428 17.96087611510529 19.266933583836646 20.46041226127199 19.95606729414788 17.5325964671026 15.1127699480367 14.067839329119499 15.049343988445353 16.454639830054543 16.073651026323923 15.118894417868951 14.345830468630815 14.638630656054957 15.765214595692203 16.75450014698369 18.94168176013506 21.646690894281168 22.70330359140685 21.993170425375407 20.339721226505326 20.726753784795097 21.107132988377195 20.73740865507881 19.840247029775586 19.140764892749864 19.19410410695309 19.421259119968404 19.22942155856884 18.494713966072418 16.80932904784434 15.8480034559137 16.779032455884717 17.772379305016585 18.020929659603304 18.648141343473643 19.004063317702773 19.11699313965433 18.05735672108287 17.77270744112682 17.246540857731727 16.409749335459704 15.365351219937626 14.522030529728006 14.897157623677417 16.163855411654723 16.80720098290697 15.888943361255714 15.757490503404657 16.807518849672174 17.791519675026993 16.920982103657053 16.136871583863414 15.790468720728619 16.432131163224025 18.582222566018302 18.731927528744908 18.46435657944237 19.210541049990848 20.097849714594876 20.860765793517842 20.828583812554317 20.281642568444422 19.522181431925034 18.773113755346152 18.108996585486494 17.891071413310975 16.725844253886123 15.486343955236425 15.22422616204931 16.237081019240744 16.837199856512868 16.954748714559948 17.39848931062112 17.31957414842947 17.655618159480394 17.22138268160053 16.84927131043704 17.21183338165132 16.571469652492947 16.062339112523592 15.174520822427649 15.401097129894861 14.747260706806644 15.011184173803374 15.734409787436348 15.94596153449222 16.447705988933507 16.91760643816685 17.709466003672926 18.899078884718296 20.399570054887402 19.741860208883082 18.658197907222224 19.171264155660555 18.885098912496094 18.532425152768962 17.112797513257874 15.458494394179304 16.123671376885707 17.208099377093706 17.314791124249567 17.65483277868576 17.75031427283227 16.878525231771835 15.190156015216097 13.65857535582086 15.00360104611453 18.237471790088236 20.03230033277697 19.517081955155398 18.015472554657226 17.3612688878344 17.37993988953524 17.001516764422703 16.688951398015128 16.508317351032176 16.145636814578445 17.24446927636399 17.721832965629595 17.300813776071422 15.676343409936104 14.098099177573925 14.740062624252873 17.371901040060582 18.972184694131784 19.45163228257633 18.58580240846055 18.144437173897153 19.117453525916993 19.872790829525368 19.248605902452475 18.528797174304607 18.332661285862056 17.717189769931178 17.555499163553133 17.48978336147322 16.153360478628805 16.068934464503617 16.331649236160544 17.607440344444953 19.235313069742553 19.300672760763643 18.306029673895168 17.96758828138536 18.134121706190367 18.75060881163149 19.258262583903246 19.542624746966105 19.242435202147103 17.89375201259331 16.367499357142144 17.05312050758675 18.648920524322456 19.289841449019466 17.488584647609173 15.986194188463902 15.592369879822616 14.503796166884044 13.813960985163407 15.112609114161378 16.638433041739443 17.107816447710075 17.04610126157804 16.366885115678176 16.67849891668231 17.565664979016823 18.182457983169293 18.424917140874513 17.52294714935714 15.318864478370134 15.136038384520278 16.03044235886542 17.435278099217605 18.149994284505173 17.995303982541436 17.675670945191385 16.354443504306257 16.013524992638168 16.07937630778938 16.04643886186117 15.938215743520146 16.92749233063495 17.02277351986443 16.860929294874808 16.054420085658897 16.555307616891735 17.56698266877664 18.146261092325453 17.098572099265766 14.888223640535864 15.335606989351549 17.142763726771676 17.548169612451677 18.079614263158415 18.53609789334707 18.15759513185953 16.78179814548764 15.784972047272804 15.916021441733205 16.55800638448248 17.72457046409948 18.934194788543817 19.519716481478152 19.24007476769246 17.699472685964942 15.744260824054466 15.004094484669984 16.353791939646158 18.012998531915986 17.070349253954337 15.464758673694293 14.478135946479654 14.791600495356416 15.92329439128825 16.313585365860863 18.213060102314138 21.376770055876108 22.88535301342781 22.59960541475051 21.384641099371066 21.461767511194633 21.272499940665924 20.23896396664016 19.264374728420574 18.326407216272294 17.630904259242833 17.89887564121328 18.21760464049101 18.344778990919668 17.62287900088815 16.605487373379574 17.269223307338486 18.720185341259896 18.528085903150384 18.061155342118994 17.373893857271703 17.067680543012663 16.334994135543734 16.595270372380007 16.69012779434936 16.662392510734563 15.774235391918968 14.412080774415411 14.241263222867738 15.107876024761014 15.629843337366324 14.74685885458513 15.002578480101446 16.365014158472473 17.651367456508925 17.422100879300746 16.463797133555016 15.803108491074914 15.725736006935596 17.40336742835434 17.48938354440279 17.024824628044904 18.020985292764376 18.904384081415646 19.710965951428516 19.83662801124 19.108410369489707 18.011513226852124 17.195167629496304 17.471152471462478 18.019192911260774 17.285476213022672 16.662353913940844 17.39276345278243 18.59818478135713 17.93764912488821 16.659046951657693 16.371298398030735 16.504403832332372 17.48521296526988 17.95570660933542 17.84507201645129 17.250765757513747 16.077671615320053 15.783621989725294 15.895587149009785 16.748066086421627 16.062835348021036 15.329704480773518 15.028930610469278 15.409386135687976 16.49513496031218 17.71354530352562 18.20237561849358 18.57023527402117 19.255505743183345 18.054637758435337 16.491321235856976 16.89411423160603 16.86463005420818 17.412459469276275 17.252830630658714 16.40478151967979 16.879225536904073 17.43171876307699 17.161389892060104 17.87065088975819 18.03578961034931 17.56204439239531 15.931685604623866 14.57184671410182 16.089475486330873 19.217440628423567 20.954495625179984 20.44218702193384 18.97797179960268 18.237944218524266 17.824547281968535 17.656961617373714 17.87357517180884 17.823128418881325 17.22950376662481 17.99526611255046 18.174741504147683 17.367875080470714 16.51727570955042 15.266898005582116 15.880793222044167 17.602378695739596 18.1026790382791 18.110970457130602 17.829232667913846 18.44315710909451 19.426962539987983 18.979111479841016 18.26161315929304 18.202314029726082 18.651601799019666 17.648556591178714 17.27242881995306 17.45140357714225 16.51906856246504 16.742968529582093 16.683171973489053 17.47483948467602 18.76744249324726 18.84982521525949 17.052065002949348 16.13254215872334 16.9502460568603 18.833351613505606 20.194114046775763 20.39719562247561 20.23244919866109 18.995852440729077 18.024533185639502 18.503716253303047 19.007901142867812 18.391577191024894 16.116755374496066 14.716821804799187 14.482882532317413 13.882361815400667 14.037404686287687 15.726231297848344 17.166040487531593 17.324133204443726 17.23804894852625 16.050446069123122 15.863426152981406 16.97668203821339 18.55504318760904 19.650910031934952 18.5960407010023 15.518103955497493 14.115648405116549 14.776261309482404 16.99690553462183 19.079848408719673 19.32004486961105 18.17080072509027 16.242679562561133 15.99742112423859 16.485503037959884 16.950060712273658 16.93084501348494 17.595688074762823 17.553664966143312 16.323620478862924 15.611360373703143 15.529801091925538 16.337729566350895 18.02808850910724 17.74359434280513 15.070772331713847 14.495878704518109 15.738826967815788 16.41876799077648 17.384623576931773 18.072463814695553 18.08856873379363 17.894440178961414 17.763864931658752 17.777456133006655 18.34418336985715 19.402273561149116 19.728176639786593 19.07064027146954 18.51009771319759 17.901390379762933 17.187921126278486 16.971011780921717 17.950678095472345 18.79646807823733 17.1059312650857 15.501554278872058 15.072764320464136 15.66697312852173 16.03579324393518 15.528102842362985 17.071677219705677 20.68698036205813 22.650000872234163 22.496579694871507 21.784164189107017 21.987055754424155 21.97349239498652 20.976442787692868 19.689541559785972 18.485304065489302 17.314622723908958 17.159217669734073 17.340728869321893 18.009767062569196 18.45723683276116 18.116445807892553 18.37381134228719 18.746933622787125 17.448678419923727 16.100025863427685 15.536432927885864 16.02031241083463 15.854879293239257 16.236044922749723 16.61103002751547 17.217409043357005 17.15666682905801 16.136933757923757 16.06561838225347 16.707632843910595 16.35751726671837 15.165040027486175 15.370367093394798 16.320107723126295 17.21074510124771 17.585750145140246 16.594264085539074 15.315271378744638 14.680334846321205 16.131406083934085 16.752272991436158 16.574005974465774 17.792352862281398 18.841723080948558 20.14055490081501 20.70646687718498 20.005934454341695 18.11286605884792 16.638145427159106 17.195492136052255 18.217848391392348 18.0397376311122 17.9504178134812 18.842217906075312 19.74685248881106 18.457762862313338 16.091531133089937 15.183097518294058 15.79726185382124 16.854431526675686 17.368122842779872 17.734896013742674 17.607766186714365 16.855056649165384 16.73143411972761 16.949750469899264 17.64477176325423 16.724863839475685 15.101796980615484 14.605962868380903 15.708105575477003 16.963692055702605 17.862031596300866 17.64337539724086 17.27527945540287 17.379830743400326 16.293876862731224 14.94533636872337 15.292421885662 16.009225634899167 17.62657649856703 18.090911669282555 17.719574255354853 17.72149608194059 17.232699790732525 16.930649445941697 17.882109200691477 18.08673635418426 18.33499373368612 17.144250099684374 15.715665604997492 16.48852778830943 19.088463690347204 20.53546689936618 19.780403702655573 18.048258504462137 17.2581349682126 16.466124599607912 16.011892081281974 16.602030445128936 17.229269389128433 17.284069845842296 17.87389956816585 17.513311849112224 16.73343152523396 16.786733181049332 16.197392110768096 16.2560668278366 16.432855974599377 16.486428038561016 16.971934690139378 17.535295073344425 18.55380176789814 19.10428497024142 17.923719187758373 17.200826984793537 17.817721546282353 19.186437017385963 18.926291048381085 18.332892323688082 17.781198473653628 16.583793933289858 16.764513595952632 16.386507473262146 16.638529200257324 17.259798479445607 17.87487394363541 16.546352092269363 15.371377667846192 16.014675074135013 17.54255423429867 19.39825425661285 20.00903614233193 20.08965811362133 19.247180126533184 19.50153787479875 19.743332596954538 18.453797456884953 16.998135514818635 15.283130797158414 14.360102440800889 14.999234845188935 15.682345843343413 16.235725894724062 16.883808816862786 17.25353180779931 17.313192093785954 17.628901044481367 16.786702311552396 16.132444970097463 16.73014226946812 18.82735962588236 20.152283714533215 19.125899780518132 16.2348197433967 14.080262988554946 14.236092992247626 16.284602036004863 18.228045281054612 18.272144878847 17.03169494278929 16.2007882122348 16.948114025194215 17.380200081129285 17.841675304836944 17.94149114392888 18.23175597061232 17.61217900646261 16.21707398699177 16.541000009617054 16.235386823703053 16.568586777210893 18.307453597343486 18.67559716182407 16.209532811121328 15.264142185911256 15.749439373641922 16.00458122023639 17.053357878792582 18.036021142731666 18.194834918852585 18.652119443012374 19.05994880315568 19.196831957119027 19.72332550204678 20.62343405132479 20.854507787986208 20.190374062328036 19.703643686149587 19.5799343002558 19.250262744050804 19.039204768538045 19.328201573468395 19.023329098594647 17.363793617426314 16.48207850679856 16.730342477175636 16.887481023463927 16.078925177035266 15.376639633052344 17.05005615010744 20.319596750460157 21.948302395258 21.692777742169497 21.48695892201423 21.51654514837708 21.45718654534266 20.37092818783316 18.966558911037254 18.454633519311997 18.05920424322458 18.0187936541347 18.033088643109004 18.680961803738576 19.244432295000603 19.538083519047184 19.10211012127951 17.487412165019567 15.471258610083098 14.657796339748938 15.117140908079781 16.230360409890686 16.61079771709753 16.991907536589697 17.22904876059213 17.716619986968063 17.83502752960645 17.286980019254738 17.129670854708007 17.409438181696895 16.304057848845265 15.315834718826482 15.87839381967679 17.018019400176406 17.817178236011337 18.283586451105787 17.413721761147542 15.89815301784027 15.103475470741555 16.55773485041368 17.717261626712194 18.124218428519722 19.5432128986266 20.283201201794842 20.904442089498467 20.965654331704936 20.079912123733763 17.730048315412606 16.55001242783401 17.543355505548348 18.570165349344286 18.80894741734034 19.472760219921664 20.03050693486062 19.760340659691042 18.01853633785718 15.873794866020656 15.183651199258534 15.631416391325534 16.409855518081656 17.050785760135515 17.768931831825125 17.57630625772419 16.898272561174515 16.968927647509428 17.349759094875356 17.641802098082813 16.59946082116557 15.107522877276853 14.786666911534597 15.845063246078869 16.70494432864339 17.10358603253818 16.641829102596287 16.845238010977848 17.548196107749924 17.214212825665697 16.274634055074575 16.53091973647156 17.225182076289855 18.57644615949253 19.16915201140866 19.12678559588708 18.545068322069138 17.344482832483397 16.87174949455912 17.532996870212695 17.97976785585413 18.70480114453034 18.15752833385178 16.789701886245403 16.63445982774301 18.385225712433343 19.539121687109837 18.461557696277435 16.56192117807472 15.878008771889014 15.31274887350533 15.019427502463145 15.844959435613966 16.68451711771019 17.26733468614717 17.21152340683282 16.017687002458562 15.639795730315242 16.59791644862908 17.030842638189576 16.6496002141728 15.9640721816033 15.962767115771772 16.436800627546127 16.936140268506364 17.760321881895816 18.336129752739744 17.035784089030845 16.444487568796582 17.5294847179397 19.17826798733062 19.50978831587205 18.840314257186474 17.66893993235104 16.470170654731007 16.375795855023963 15.893672025071167 16.64262228027287 17.314263807779557 18.150922867188264 17.550699892206506 16.47894902985523 16.35047010281498 16.395483083473934 17.59937580279699 18.31792323269097 18.885799742035065 18.926057340526615 20.285718536541935 20.752601542000704 18.86336563266728 17.60950037341754 16.379568169688827 15.343255596283035 16.48604452784081 18.04652318198271 18.16041289819582 16.859785396999243 16.15374776572687 16.172626532742203 16.470525175408405 16.201376136727387 15.967567503469974 16.537028542145457 18.84950022439548 19.66737181277667 18.711332408028063 16.882718545836155 14.978346302690618 14.752014310709772 16.33952991846961 17.48210611675507 17.606282171263754 16.53131123595347 16.58276529705706 17.5748137826512 17.66222140344415 17.757282696591755 17.947166108258394 17.62742385766922 16.670491479827085 16.931320897296455 18.466925809471444 18.833176311040386 18.882886071971804 19.658122393926103 19.365830510603818 16.827518907409186 15.83258347224919 15.593046521338954 15.033576660763252 15.981107964974854 17.110313737716208 17.359767475353067 18.38721951981957 18.815459391312494 18.37965400864031 18.418879223942238 19.443459177137026 20.19438381498251 19.75991336529749 19.061321104272896 19.346496989821286 19.690174171768536 20.260741146538624 20.253141318976542 18.7623603558558 17.165176463723224 16.81910578769429 17.680856453298638 17.526326229357867 16.47151875452827 15.920491115376064 17.64646447029756 19.822662624981554 20.789869541716772 20.792359300486762 21.20178659515681 21.12673057034768 20.617036171738388 18.983917230910013 17.738294391971003 18.185313088313993 18.759788042826727 18.115766787831117 17.559643236084337 17.909194675735787 18.467701053019567 19.661134877650138 19.254521094664476 16.606591109808715 14.59290346593385 14.874607146901473 16.234841393618332 17.008008400369825 16.92130251140068 17.386250868239284 17.75779696765174 17.693733288221438 17.410181729307535 16.910511470272475 16.171256897165982 16.130631072941572 15.572455896319973 15.809629232879843 16.72889996226248 17.369255193915325 17.990196088321042 18.309480856656542 17.330710763671558 15.629705401285284 15.190735768879302 16.789275064276005 18.46006678687124 19.308710964644153 20.172364328203933 20.12329475117541 19.972667582565375 19.578316135058277 18.861628433163443 17.123981605212332 17.00001639389763 18.458166716141733 19.163933754142985 19.408372588460953 20.162469287279116 19.616060341683205 18.28110776150861 16.760978760138734 16.219521940790884 16.69777867380855 16.78201046716294 17.06126649250594 17.537943905555757 18.345013047225216 18.00251804062152 17.321686388005077 17.447920794973097 17.93817958556282 17.899805785133314 16.904105587641073 15.995149911206392 16.031911723248566 16.740444241158098 16.72504004794906 16.55564229526108 15.409435120522678 15.401059644029852 16.877885657230706 18.14444053555027 18.381585817875727 18.45458036654595 18.39949246991655 18.607202164033968 18.78466648266925 19.356553717614887 19.11034968993753 18.028607127102326 17.071596134350415 17.37302547043719 18.273388533888216 18.47684815228486 17.30783733022026 15.542901360137494 15.438105124592278 17.61807055742669 18.793370993486658 17.896179100164428 16.348327362755303 15.731752742346002 15.653372779626721 16.023134518740218 16.925524621819854 17.21655498923747 17.939190938815443 17.646490221031257 16.322633936730124 15.984629469210088 16.52227512786778 17.38959662246376 16.83895903770943 16.119459919037098 16.173245559375268 16.36110544889275 16.999983183085586 17.764457602169767 18.227045737764 17.23916029072123 17.115195187399365 18.32226963223201 19.066356058760746 19.291390070936064 19.159892434932146 18.127166529325006 16.98528494880387 16.442183029482965 15.599832204881972 16.448159613596772 17.30529064928182 17.65866832947747 17.582522834803218 17.38420473668945 17.30872207450237 16.726567534849014 17.17791663119564 17.316727831444155 17.72306341930431 18.187438676443872 20.00629271913856 21.054759085059374 19.860090007025722 19.11707744511739 17.847319719520772 16.377581658169564 17.18712672669673 18.680156737922044 18.34169152415024 16.274751046058128 15.567278871047787 15.804048672533922 16.16132793799097 16.376123763676098 16.0683680256889 16.54383686184145 18.62330384447195 18.859088757820793 18.403747126902093 17.54710424529174 16.331702073896476 15.87063181941477 17.010851127299752 18.06364639794897 18.71578381661843 17.465746441594472 16.72008698361665 16.679935580062953 16.168377411361416 16.38474931622276 17.164448932659273 16.453992353932936 15.858508501977658 17.044179148089707 19.128632756668335 20.094823987460085 19.94033795280229 19.771563904757024 18.82373519488362 16.43962475102186 15.712060642073775 15.49659960120663 14.690775636745727 15.722761142654859 16.893791018560442 16.87055986460527 17.752839441130956 18.189630015018423 17.38093368151099 16.772092629571485 17.78082204733195 18.789577913894398 18.38140281899508 17.282517511753177 17.82762960518414 19.22821124451108 20.719138019087957 21.3148793092614 19.88861614875507 18.443866709042556 17.82869966927086 17.9468983822725 16.90952179868327 16.293283480334864 16.538677062446627 18.16397524914784 19.623412897091857 20.31664769172105 20.479618170218284 20.148749944631774 19.211288268069012 18.424380103641113 16.900195103833646 16.086722375679074 17.4327738244988 18.75207788032038 17.751428631784435 17.60432848122848 18.11106917094342 18.4691587370329 19.134615391678462 18.664488041437927 16.414699272307708 14.631882938500597 15.165600133793111 16.267487003392482 16.885835888012977 16.838033733870613 16.899923407374793 16.673505324474778 16.51400698383347 16.826680623621012 16.4780098334604 14.92984904128518 14.537420548181606 14.720532269341007 15.591645010558864 16.55558820897434 16.377239160923462 16.392369565076706 16.756963281501744 16.512100415593192 15.50628151106369 15.726707930974142 17.266091333629607 19.10996034251455 19.53757571445253 19.455590639760683 18.843402967943597 18.586536545611747 18.101155650511046 17.844252843798532 17.21618832362223 17.5271120542074 18.439322935084043 18.502110164597806 18.512840184539407 18.798709679108807 17.197708388066705 15.879564724383863 15.92971902012223 16.965620072837858 17.211491332756612 16.47856258224783 16.545751512738253 17.21622783790195 18.052303915180946 17.64286565329818 16.735973464930925 16.790617136931864 17.245422198930868 17.181496841306714 16.418033822331846 16.06429109235244 17.332280441229628 18.1048014208782 17.414050608860077 16.46412023116952 14.457179063702645 13.720690150105582 14.982050902653976 16.978105171892174 18.1681609187505 18.059006779460486 18.032647112177703 18.472174720550985 19.111112949075522 20.37070085164504 20.32147658697719 19.27204814215017 18.47177196408269 18.461000842676338 19.058775548323116 19.094968714851607 17.758500634595013 15.306609997665758 14.234235523623195 15.93927737069429 17.41569356104836 17.718961328374743 17.395409950874193 16.77869944799318 16.776964676107173 17.347475726954166 17.590571991385936 17.194710349930677 17.76884763295102 17.66684226055682 17.337517916092033 17.212339118341138 16.672276685972886 16.79508044227883 16.265107916328578 16.149487297579636 15.915708953514734 15.699307990902117 16.3289734002967 17.78437563664295 18.448915879748895 17.917646545979665 17.853617783241756 18.539188521885333 18.206858523424057 17.502987076363436 17.496100334171437 16.790620251602157 16.509083730407568 16.80141240181846 16.259644232848277 16.64645532142496 17.26125216710665 17.47409518666121 17.733245704715618 17.63959851486534 17.030054070220178 16.381961926370472 16.68076066991572 16.831299583770665 17.488612008535824 18.430131387748297 19.852344703096 20.370390282311774 19.529730165235783 19.170470522451097 17.870087136654128 16.805406860431127 17.378549419933773 18.437021805093938 18.066425835151787 16.565040849826442 16.289915834711433 16.294495982180983 16.198166127286076 16.635660219117923 15.802731956032636 15.468138852029357 16.744102843855117 16.763930967265843 17.30344865106028 17.421115857244928 16.772990064850205 16.41892900431904 17.4017400291614 18.711608675484257 19.998520590266196 19.012800288221364 17.054943069040668 15.738054759979546 14.331524063146153 14.862178567004532 16.511358