# vtk DataFile Version 2.0
Ocean Simulation Step
ASCII
DATASET STRUCTURED_POINTS
DIMENSIONS 200 200 1
ORIGIN 0 0 0
SPACING 1 1 1
POINT_DATA 40000
SCALARS Temperature float 1
LOOKUP_TABLE default
10.797970519058833 11.547528814568938 12.719566929300692 15.746024913085838 12.418304871969722 13.511998937564979 11.600761264061058 15.534163389363727 22.439130173327616 18.794943934304424 14.879937555885226 12.957131935469233 16.26916292870633 19.891898858303378 18.199511948074633 22.27170998277556 19.023226735736596 16.17759461111092 20.326190562592345 23.75996317745354 18.213426575530598 14.707348586705992 10.07030784082389 10.92390405056754 12.428353991406073 13.076103032250707 16.702991384574485 11.74299066554545 17.899362884426285 24.381661364820765 22.126384683528553 18.98411015386613 20.20830657547622 23.86398979410366 22.940064805132412 17.556717500887977 14.260369029417642 20.8784029643318 14.270363905676733 19.71281933193385 18.61834791632231 21.92159808245621 21.93720182357577 16.857270921718403 20.047934747228858 23.862396311982295 19.609821136993546 13.93161862778428 17.382747569907583 12.945692041719422 16.41663357077412 15.477331207117093 17.797162618273692 21.160819375953 22.355068999997602 24.068051423065015 16.05208399373331 11.375581735462385 14.446276978575758 10.543226747883873 12.764191160157 23.47914579849025 23.936681301848704 24.99731129934475 21.87247602585643 17.2372808327086 23.592230495136786 20.115693209814253 16.428451491952373 13.502071987327572 15.63666902913379 21.004581852757806 22.62616631817594 23.286817595862612 20.508197420757902 18.50037659793287 19.998212837321116 17.217359047239654 12.956144301055698 18.331768323857585 16.538172486878704 12.004878676523838 13.683550102657295 19.95046470181716 19.35349302527549 12.352217186403035 10.246279992442922 20.582546295033953 15.637369971700902 13.90125584788596 19.623784522005398 13.891841699258594 11.071187100156168 9.754011594828672 12.978622360758004 11.129196920289528 12.383073225890875 10.573117879194815 15.051738051296407 16.650701587337625 13.910831673833508 21.656822710468454 17.958431736441174 16.70650799984359 12.205527920065167 11.103413941262263 13.962134110037185 16.387445018399767 15.558353513847555 22.227193847359644 21.77088642185076 12.06687779398989 17.824286671242987 17.505736738965314 11.432829874668801 18.932594747102474 11.81012155493077 12.431236861578187 16.739345923954442 13.568447592280402 18.21833830308379 14.088059951323793 13.323729183470578 17.9986667471502 21.334886802069665 13.743464678626589 18.45890002873522 12.713826636006873 17.487358362026036 21.0870994417825 20.71400223179406 19.280761754108 16.11704174708796 19.683946896353614 25.315078027753973 22.697947806046912 19.126762979954293 21.461078305085845 19.846880800630778 17.321971619266876 12.809649545811755 14.227135016870312 17.588618634606828 22.766076908125246 18.919042715729955 11.390921492631456 18.656657154171754 22.346549716152033 18.564305916134394 13.950713273198007 23.42618781987768 22.33680208386007 23.298057152291523 15.476775363661593 15.829676232992092 16.072357915857637 18.831523768901278 15.437214418822768 15.953242256422167 12.357488994313211 13.517554530901087 15.865415954229185 11.717766537002724 18.80290714199664 23.216682996167403 19.946365285017574 17.237084691291365 14.370163718529465 17.79334837736667 16.499391264851763 22.83870754058062 20.97084408513762 18.75766537546003 18.841183139586345 23.4744993717945 19.329403622685497 21.085494954250343 15.240232324114169 12.812619530390828 21.604344400146744 20.51577742761598 24.35751328897252 13.996119156837048 11.564672504198775 13.33456233198383 21.03719851439214 20.660197878104423 22.920911757458025 19.936808750068124 17.07650053357264 12.752487175529808 12.649722535391296 18.480595626102797 14.773036133435532 17.562245352525427 13.02654889922514 21.048625162213604 18.722205452072586 19.55756629447752 18.859764449735504 11.503532403617728 10.19372582852887 16.96350967948624 21.174750972711156 18.992513092657724 21.1089338083915 16.480479164342785 16.070677459113295 20.063683165828394 13.44959106735402 14.90574235170325 14.16800322540945 17.548191050768942 18.255593777138 13.35672677652279 23.586647218540865 22.50895194824253 19.084541447909167 17.8291551054875 25.33724557673934 24.35635088569331 15.569750053454431 13.996854841890958 13.472762503512236 12.053780792465897 17.270457221859544 16.142040673297323 13.15299998833444 13.936398545193445 15.40114695099052 17.272642891821146 15.551403909248636 22.637255232934578 24.73192363977737 22.135917279060603 22.678734584635954 13.804555345677366 22.881428752982476 19.078281009034963 22.974417818925932 18.182660924275797 21.210722569528198 25.18590863863439 23.519461376621944 22.534711536126668 20.194057245229157 12.678425726202914 15.589219410087239 19.034194938655038 16.666518044904954 20.124985675611427 23.467416813694875 22.35579390590823 24.747818448741253 16.03147292295957 19.22114702096773 18.315311333204207 17.374632479359946 16.76457817490012 15.305028223086927 18.157230913122763 24.19245205298064 22.09831392440497 17.587344677197247 13.539187558189397 11.670500543476091 15.695218618185743 12.370446653201213 12.74691725877077 11.948909582914379 17.04755971139079 24.157150499459448 20.40576487389849 23.18214450901444 23.61266058139803 22.412532989612355 23.838973722255723 21.078466575784415 22.93447733221941 22.563105378300822 21.69143645810687 17.403372232731538 16.805845207054055 16.091651208493527 15.773108833782715 11.423219401651595 11.322335821577628 15.744740953778601 13.075906697470165 16.49909739391871 16.86623519754348 19.233194169333075 13.48523840691667 11.930609513852097 19.843953700192284 19.342674753672803 20.01333694666138 11.743266665942464 16.468231398816723 11.431732156216691 14.781895634267517 22.021579341371233 17.260612800017014 14.686796892875675 11.424660503071223 12.806909251965184 14.55737981161734 24.047618226305197 22.03340704459683 19.823948925723442 23.348787355583116 17.97118805744194 20.13803510894363 14.810031347667097 11.149325675348743 19.820489259482354 12.933510739274773 14.882977737472313 13.504159953879178 17.177800772352956 16.67169117444071 11.261208049321494 8.961437879832028 10.942502232072494 22.630441066619454 21.011562117769635 22.25164001359293 13.242874037689994 11.935764274884354 19.105456949819157 13.333350652259405 13.30855361698483 14.571302706218951 13.408700597262596 20.86729059233154 19.000981252583664 22.678190425740542 15.359927726119798 12.055566533095332 9.84805532898528 13.443883711394781 18.42446633316444 24.10596157580296 22.097936021740033 15.055605206163726 13.95032918193626 24.065555530008552 21.310548606885735 16.049125039259657 15.393610606871713 22.665061945998005 20.032650546347945 23.11719810243865 14.153285905578887 12.38791612579569 16.553288735397587 20.54955417110886 21.43056758835707 15.949790601813191 20.80325428420936 21.993765723786208 15.885283216100675 13.049618588875967 14.296376612398396 17.7051412734166 20.07490710454016 13.9861752477496 11.948186677349515 12.9205717891588 14.309821242122784 22.88073511518383 18.824181929236563 17.756795225657356 21.616775557246655 22.09713760050783 14.177819265604064 18.5059257815988 22.11679996737045 22.27878506017752 21.005608272694612 21.512817369169998 23.32029650204452 22.437403146681287 19.36077705666786 16.856257548886163 13.933902100680282 10.210625537298487 13.688718704334372 13.964004445883736 14.542297442106682 13.81534439800076 12.765802610466473 18.75205876098387 16.68569294385554 19.60817143966356 18.002607130146355 17.062793780819025 12.825338245803575 18.804446614468475 18.46638501476797 21.134859774541212 15.446497179540929 17.379573386599652 19.699934529078114 16.66356651452143 21.621632329738617 13.578131625300912 19.893085650614857 22.80765751879032 19.522177818659166 14.10584032778487 16.63775490628464 17.449011447135526 13.299431596227167 11.696331775417049 17.124754833008808 14.090960948062913 18.067003723689453 18.96429526788416 21.744440177395784 22.112896336307816 16.907817464489007 15.172757491360615 11.353693459790463 15.21080207959345 17.4764857141013 13.915436191690821 17.260756426409326 11.784686584153551 11.343962578195164 13.777256969323338 15.307497240642576 16.531498209048614 22.603748732794966 24.916558416359045 25.2886904923101 17.151163767675463 19.980558743947604 24.3761624653903 23.349055989798355 21.71528311151306 15.671886630989498 19.076894383854366 20.49946220411255 18.117270489631665 18.926087673381662 15.114135250767916 11.780243434420123 18.219730356416637 18.154048037428293 13.381120253348081 17.144520263804875 18.384585412970306 23.282647661206862 17.725254005722526 18.00054443367088 18.261934547706524 15.625337772551886 14.307636346433794 13.904745240890362 13.909399740269343 13.689201444430415 17.813610985941175 13.233172200027564 15.449707160893322 19.6290711492573 23.001272816617778 15.07786017732504 18.679820240232253 16.668581620229613 12.490703026223683 22.36522686605691 17.582137201038424 15.499088689769891 17.76293605704126 20.59905710177158 23.624723690695383 23.16752896870171 23.208338639737452 19.93532507898852 21.952163816393128 17.77570264053748 21.6498599379609 16.016342989394165 12.955199015099076 11.665889257441124 16.79057628237221 17.340430398835995 18.348859048056607 22.42047620668287 16.13445991078649 20.674692383848225 18.35663773329715 14.405402517599763 21.710765697856196 15.827608162802886 19.759932162545407 12.309254701619102 16.83001639683012 10.593430473084458 13.153678723700628 15.143857248737893 14.521179615002156 19.628954436868955 17.572730529355752 21.0424948566679 19.73984833387132 24.99545549708798 21.16983225392022 15.914418075032682 22.085231983155133 22.653146930463976 22.787196780579823 19.371661089435637 11.084134901090783 12.657872114474975 22.229038185848744 20.094923369227793 19.27985229148022 20.89485142308955 16.193563411406807 19.398280535648528 10.509830571425194 10.91505598266342 16.710916407451716 22.736055844950027 18.204932352722533 17.88115843535029 16.70521838746136 17.21796904422911 16.197327161650083 14.383746359484398 17.261770350545046 11.129226077092804 15.214677152456563 13.97622469866039 18.26683718787094 12.273765239352564 10.018078424101967 10.547606582014312 22.498642440673745 21.70145388900031 22.473911910047562 17.08639996292529 15.540095083487659 21.37773658724032 23.940680703818916 18.404621151443642 18.8993273991355 20.283843509337956 14.307379901935626 15.679107276126445 17.183099491819867 12.451096515970228 17.909001334345387 13.528128611184142 14.155243644610211 22.200378972541955 22.211160563408416 18.38646672187936 20.301721471105427 21.237861936092756 22.354946656772075 18.87508910856951 20.482471025626946 18.119476542436857 21.31802784468259 12.086837318907513 16.692851746481473 20.689727978448516 23.181506868143693 16.87863026764277 12.41706988839884 15.86081962789137 10.418462547566703 8.23623395613047 11.351518118704758 13.957428509171692 15.377243402238516 14.478570328659353 11.318287742394466 12.505865904907104 17.2923739240903 18.463581794271395 18.571978571059965 21.29801014886038 11.503049480468192 17.025174661645135 17.858607910777966 22.035287061791674 20.42446494240688 16.66691377356692 19.23657897520533 14.369460508037493 14.62544026546357 15.338401776451212 14.16385457493595 11.734965472361507 18.157639185552032 15.102435438801612 19.18363712703508 14.390670070365232 17.94332936442587 20.033058595817128 20.278424486622473 15.490524654313276 9.05569449689083 12.586457051136081 20.8224089921742 16.71348177386774 21.906813993405805 22.852677199422704 22.526231230939125 15.869608751623067 12.438937368771334 12.136124035533454 14.390849709643636 13.907452631805528 18.654310636657222 20.34158245494431 21.879386097319475 20.63724729394909 12.92011975839739 11.043725430602848 14.701166107081741 23.01259510690574 20.04188225627191 15.391637237979669 14.432053400092428 12.064349509894884 19.6169115146721 15.223044117658723 18.69989263179614 24.463311800430354 22.8531049955828 24.31830868812187 20.25188761440971 22.509566581289768 20.36869998893865 15.060663416196565 17.173885037344867 18.78920800846071 13.969513641048254 17.951161465360418 19.524294550019068 21.24161705733755 19.376187414977863 13.93219293455171 12.90204900944226 23.215154349742292 20.357799083459412 22.60549329400469 17.59172244409008 15.043728026303306 12.780147585109622 17.817951252361983 15.24577132610479 18.89421905875125 14.817309240379519 10.557880240592748 9.89947336856418 10.826431354510625 16.56289275168601 11.104035921452253 12.118850543240331 15.005239224723631 20.980531551273383 18.734550155623854 14.546062071071734 18.47039911734359 13.71532497992023 21.61596028400562 18.2350422626636 14.14152813983084 19.919358604361555 18.454233348300132 17.11670619536087 17.38524900085944 14.111411410550591 15.251126994627388 13.852270530529497 17.069256660836423 19.21171248233256 16.70557403524761 15.24134883628214 18.951867642692978 23.762259655837518 17.201260671127937 14.876672395521908 17.67777992381388 13.311860313689765 17.472610639473263 20.94776808076109 21.77154255753587 15.440792456871272 11.299675369938447 12.273656320946667 14.101282932580338 20.448897735863067 15.957806654898448 18.038057795526335 15.03282229457815 12.472598542867242 13.393480579310152 19.77751531575303 18.136433138688606 18.394578386752126 23.776651786424672 19.943841566282686 12.078791172938393 20.530472412075934 12.937689633484672 13.867187405103865 18.56495781064443 14.966709435979661 16.674656776875445 20.734646682418813 12.828043777120245 18.542475628576724 18.11859768194251 18.78227948125172 14.191367911487728 10.91227687786984 18.01945451338972 22.31550696852505 24.04023098477506 22.960019079574952 20.19405729763592 20.444820272652663 19.311179869772378 21.336525976095235 22.758812588671546 21.965201251467377 16.351649539287227 20.3017498742689 22.536956574214187 16.136402505455226 20.862201629553066 13.143052567814332 15.740651845242299 22.627113614934864 18.55943272897405 17.68811878865283 14.922430644176101 17.424312255734925 23.145754151872783 16.940272349165618 18.27589100658512 16.51854693003487 22.207052619490323 13.34643728268771 13.706637407466333 20.587202556878236 15.21705985967505 18.834343306008194 16.303852559057436 18.484308417558353 22.825606720898936 22.716235608894245 13.46814779641912 13.129973134927521 13.41545157415306 22.085174181528473 23.73676965516897 19.37910848574447 23.470476541392582 20.24921087267513 15.771258247551446 17.56491541776728 22.315700993162263 22.94895443160886 13.3358140518595 14.258592756860322 14.990518857582506 10.69194061555322 10.268679752722573 16.252690093787965 21.752843462003707 16.10757491588584 20.3922275772718 12.08524651574778 13.87790822565491 17.79855806190889 17.54552436830339 22.60235961650887 21.90138877018669 11.792563182933598 11.55815012768994 11.525824266941793 15.855178839575307 23.110696015808543 24.347205779799303 23.27309822555644 13.490977669127277 12.899243691384724 16.58823304620941 19.136598746155105 15.9241364981515 17.926014451036085 17.56323469036259 13.831539345521195 13.168381413384123 13.612715068267914 11.881087017604356 21.61676373251181 21.92594504147388 11.508966710473647 10.39265210352599 14.60408187846093 14.391204971113766 16.232721308141564 15.647090908364811 15.74565250913533 18.54857589458802 19.998299658541843 17.695161309718248 16.94215967079265 22.041818260158887 20.89074573613142 14.681855784062416 14.141346545554836 14.067355555588346 16.42599779220265 16.75951368036926 17.10132426595318 23.734422469888116 14.026884999479416 12.336585060703763 11.259420044183928 15.668980954697169 20.032479962026205 12.136321116027103 11.376325191625792 22.21070003872442 25.0783033658559 23.90370240933602 20.129843959245147 24.45387210712908 25.194590683998864 23.555004366410476 22.621136339263288 19.362217934480896 15.266183385152985 14.608470649231128 13.340154048447266 13.94758190214838 20.540295759899024 16.507600953358207 17.729042650501132 24.09091062484144 18.76585630138197 13.963417436043704 11.483021035884057 18.72836642490721 12.337632496804186 14.899116005984657 15.815372708097426 17.019303681109704 20.92824015699816 14.756432684126514 16.88959556922536 19.226031636482798 19.7178163343123 14.440417523405 16.976088495492856 15.148155297976464 13.71606434986948 19.71945248855691 15.360661362295144 12.51984372186242 9.524517269059572 14.379579817383139 16.374271980836284 11.828024309671592 15.576032957717171 14.210926562294098 21.153528613665646 23.444061815755727 23.041991017687497 20.886582421703118 13.604756407989681 15.875222002170961 20.613594627420266 18.796626658749847 15.776141134855404 16.118006493265867 23.33143994359348 21.55777796225407 13.722630961202915 11.22649670065463 17.23360054661343 18.946081169767492 15.76845476973758 16.062893437760135 20.614123929833337 18.78431730400976 19.57575635289061 16.084448030904866 20.922821705118235 19.91260156702698 12.670281556053085 11.038321417753403 18.62035747292747 18.421438877852584 20.572331082611644 19.612175536066474 12.899923663400504 14.60965293624227 12.806257527539211 10.660145703401959 12.018887851867804 11.352004104775292 21.029719186909336 17.31068438649311 15.127031267977642 19.68803580537698 16.500353576638652 13.942523187271163 21.757770326721218 16.21232261757056 21.67949483269195 16.81310720545362 11.773922579734412 12.70697200194303 22.423978784873075 21.86980432954938 21.774153778507767 16.565640532095102 18.636497081856806 15.787486149842302 12.918771826400919 15.096183266493924 18.59547640620606 14.72100160535843 20.207213227629357 20.58695006574502 15.435290809544846 18.860379290737107 13.763552502879739 17.18517563953673 14.676977690394146 13.628958006472516 16.39576120823813 18.697851822972453 21.95508084252443 20.916081581016876 17.20228600900073 16.60266460599767 16.767733044662467 22.436148620096578 20.233968321050472 19.34155634241776 21.669593979260775 12.891722731192804 19.613153492727836 16.59852827906873 14.202881978863413 12.059166620832464 18.990228201137246 14.285820468542102 10.37496655267641 15.234735256785573 16.25270909267849 23.685151983465285 21.651895451096134 23.01797091518412 15.811421409818122 20.588538082572068 22.612928731285617 16.472290194200745 13.548349996791304 12.564102424887672 11.615568852284925 14.376243495912886 14.702862621982772 15.504923285952517 20.005508726651613 18.730032376727127 16.824740371561518 22.610658641837652 20.803681796298996 15.474011760146379 14.529773871943192 19.425806627544553 23.473013193010974 23.228714656165124 15.899964654492221 10.78045774799239 12.728510905416217 14.112299573087467 21.848647062089686 17.53235172350314 15.654006727464576 12.221705071535444 20.0671752806391 15.685877461467518 19.971348927950753 17.53673714484045 20.527032532720654 21.89403065972588 12.326879306442539 18.730455140357584 12.216565295059567 11.13617077305069 16.16728173552691 23.50846547962669 14.534523689328573 14.065063006426616 17.69325390940475 16.63297167234257 18.626694333430432 21.740197508673745 19.991841456742556 18.73901784081438 20.430743327032726 21.896139171539804 23.28323815969199 23.997782088260905 23.04740264480059 21.738453129200497 23.125244385130525 22.74820888413519 22.802039320755547 17.785851968214917 19.793468323956006 22.51077598820146 17.547238819387978 18.094175732853916 17.880004332769225 19.38377623884233 13.413514988237077 13.516846657071845 13.7284368517037 23.737926141660424 25.452122902759193 21.034166202567828 21.177513748209698 18.613145178001343 21.184466861882076 22.342565535459116 16.18761838324019 19.691394180316685 15.615955382600305 20.813984193497898 20.18402405419102 22.50718305192282 22.289768631002442 21.112199876823446 20.241861804873146 16.971795743653914 12.71504846622046 12.052813316015841 11.141710884153184 16.02609628658966 19.625654125735693 18.52082675686603 14.317698168201801 18.01832019380908 20.357829867272866 18.525124408277374 18.012682473713944 22.915184059933747 15.898930148953296 11.245126049717589 13.154759955530299 19.519159260491282 17.21505129916686 19.360492456688444 19.26772458529718 19.140432977209336 13.041173057677867 18.727154941469255 20.680715108147215 15.30246472384875 23.664168681015195 22.661111777264654 23.706342250753277 22.525788701095944 24.141360453923454 16.057104367672366 13.496146651347052 16.54521403248777 18.522975815012057 17.016812671072486 19.554989756338557 23.03155573090721 21.429039468469842 20.896011681707073 14.512147608364872 10.881316839732122 13.176057304060627 14.267806850917347 15.606527042424837 18.489825928707056 16.85574295465121 13.461797315253325 15.751277875690368 15.708572427998117 17.648047366279886 15.826574325213484 11.645002928938142 12.925414494421775 14.549151392372002 17.33526382226835 16.81765296230077 14.442206456204115 20.179034279028713 21.033078249166465 18.09765905426467 12.445260227165374 15.877471683489569 16.20799863964086 20.545778231923975 23.15135144663227 22.28492479155101 20.293747365083114 13.953741160736282 17.37241628233114 19.79820319503503 13.98101043593825 21.042285064549993 23.155865842932506 21.748998131043187 17.086246571884026 15.513918942105272 21.87169202696948 17.84569314274407 12.811393986874075 15.719863948392023 14.380835819830736 11.412264938693111 12.97398132069085 15.701996924237644 16.81795013666632 17.010103964107056 11.51913017972287 11.450558392383186 19.125531781924035 18.00752030833868 17.30657100402489 14.583808634862548 14.38584307410389 17.831933679448305 13.7964697395914 14.948252925591628 21.438664718910974 14.756474177789894 12.759346704075961 13.511333549184794 21.43154250652472 21.10854667604129 17.7271160867664 14.430189030533228 13.548722060945384 17.665379784786936 12.959149232474758 20.381966715328115 15.109273793009502 22.642310342779396 21.379662981909938 15.65851164240884 16.479619631482752 11.072146143270128 15.55577701956117 16.533108202945726 20.980034087802103 17.55073392229064 23.50002301460467 25.258654323054476 14.065624357214492 17.04901209305687 17.41442176315071 12.141564428090765 17.62387121324199 22.41402106296354 23.16054153747873 15.978623804598305 14.474537758175503 15.435471150611425 14.86263083278164 12.760190500316886 16.915167113222644 12.010278086140584 20.838193114058758 20.881658560857776 16.008298227337885 18.655543676475972 12.041720743269238 11.77788216683479 18.89608519352293 14.86652947163683 16.947657185347545 12.398684712948208 17.087522172464713 21.55693479396925 19.801180624118405 18.495828213941643 17.832959778743906 20.449307136222608 15.127056585811117 19.63750495865911 21.976671174009052 21.3980414874782 20.327123015988963 22.8016461201507 24.07411670436467 15.237779911565076 17.91736951241991 16.401995410734898 11.8080307745746 14.52014772145875 17.438451611806343 13.281731196785035 19.847851884250087 19.798655647763155 16.41221094580786 17.600735545660886 18.797232593601517 22.557586461066474 21.395424843822326 18.25150863000319 22.143805056621623 16.77799441170606 21.51177754324647 21.62871904982077 15.269830210971342 14.114389617109131 13.406186158083951 20.01371560921404 20.720804361518567 18.0297744383518 11.942627189004991 20.131251571233303 19.218380182746756 19.982382142088483 16.15507837233622 24.028165339931242 23.962655893094823 24.44202421999234 18.362275818306177 17.351077695702614 18.219316561865803 21.84024402882994 19.585435708570667 13.911501873229714 17.638525342999092 13.577671425134824 23.78988556883741 24.336515102228947 12.956730392466266 11.869205191395102 13.86826782362563 20.759897110090336 18.825835223236343 14.150670380462246 17.768232692729317 22.556876018931202 20.304279192183177 14.700160994201525 16.81363941280515 15.06999960371966 18.869867663635556 13.744144120980591 17.439532294214445 18.927452362645397 18.736568083679533 21.668953157588707 22.321176474017463 18.031778469827497 13.03114297863592 11.540291746349071 17.74471853686256 17.744632812273043 21.037536627893157 23.003440935074366 21.320296057506678 19.186057956362063 19.21320935078673 21.379004334423673 13.462388711638633 14.75640641929362 22.754915340187335 22.45732216901765 19.308867223146912 24.50931403915356 23.321332328992305 20.909748201612324 12.751151889489394 12.012002444571605 21.322088802081957 18.944142126715363 19.02511827587109 17.81227407461993 20.953448637739186 18.712555310367684 19.224847829736053 18.593400594782278 21.291209227517992 21.20318313325062 17.982914266905034 19.670111342396325 13.736157560210302 18.209933751104206 14.63357194930597 19.339460971350224 14.221549260444993 12.439964316175995 19.19888998877832 23.51437750210013 20.744409349139815 22.361662950288764 20.41538416417076 19.192605656434903 16.042413465569606 18.126790491772347 17.89761334139975 18.73191878321896 13.049918490685759 13.3993607315507 20.28903693891197 17.425193418237704 14.949653310354623 11.274014117916801 12.261285032376264 21.8581858071172 22.119110266164984 19.51787112544266 13.005294961718741 14.288924234184776 15.505623207103291 13.688690498725054 20.612647695280717 16.423478338476055 22.017592673113974 21.174777455152814 12.560226218803862 14.163385914742982 13.686937515876748 21.589663719381765 18.44707643079216 12.951042883016605 18.37543948072749 14.836193867299112 20.566692616853427 15.84140497127756 20.848966836328017 15.05542254092338 16.097430661889206 21.922997698817895 17.90976054725422 22.322924099231084 23.298622271506776 22.434112391842334 17.51559239957084 17.241690896256607 11.358145598105272 17.268542584164635 19.088779770776114 16.992962025844303 17.017461071181476 17.277352459091926 21.6750210635573 16.285699745252966 19.62959279171894 15.963322215979375 16.181039224228993 13.450066409356372 18.799019609959192 25.386036059432207 20.872264852290776 21.052378616868598 21.594211393319547 13.30321353743118 16.37214304351343 20.371114574966274 20.224263473877627 11.518390799636046 12.548627041367315 13.94037977613337 17.42833122940155 17.333247921751845 15.85414910703941 15.609214256159655 24.630879355661353 21.0084857676891 20.63060061718559 18.09036633275205 18.47822726608877 13.99221236186723 17.196040426114234 18.050367228224136 23.066522154479763 14.072762518070768 16.542769810585728 17.27268440086473 16.622159940459046 15.240817609429412 21.054892549493374 14.044841198192088 13.673316035565021 15.27863749838006 19.50465583822899 22.7322093098404 18.911434377220058 19.086898676148262 21.116200719337108 11.976805359438147 13.072536728144962 17.108950481044864 10.456424382311114 15.975924041525339 18.399259161523606 15.492388366825711 21.582595003035436 19.948634610960863 16.864994061965135 12.34728283234306 18.430926849654846 18.271004375762594 17.228063453247618 13.036006056496577 16.73348675212782 22.501351270205163 24.601003595570717 25.76021708289679 18.21216938851599 16.80773042953953 14.521116599168433 21.113630490096096 15.545149444264322 16.078713514258357 13.532405794957132 17.10248685421908 22.076252583480212 22.21689679889605 22.841495527422342 21.84432891514162 18.70964030045044 20.311744239874287 15.987798587679364 11.67695331328371 16.78605060239203 22.87008582881569 13.566213448976933 17.267648169683927 15.802522315114901 14.520686654570987 18.566110069932318 21.63317037675429 16.345331362644902 10.701507976786258 15.429676143054238 18.63132108110473 20.83964770320029 14.645081124184225 17.708738687254773 16.38776057678697 14.438820658891423 19.498440717723476 18.748936537284894 11.151245448046316 10.91577491431895 11.863116101395256 15.919881120041333 18.7887841346879 12.446760940044255 13.334061618089432 16.53019057680449 19.626976121554318 13.44443761777245 15.68367766996772 14.314135688444345 21.440475590555945 17.73801326403654 19.269705706783327 16.259829422706684 20.49484448914678 16.08310927956505 17.04278115066664 13.689820065405376 18.56961813288457 19.178989722044918 14.967313893754056 16.431122730043704 22.77159350765978 13.274942959438608 12.773640411792822 16.12233416187395 19.308347986020518 20.899426629742162 15.550340123337447 17.84128261112757 14.263822235316587 22.024557340560452 18.248395976150977 13.946509932058147 16.004638716318592 16.436876804404662 15.097049193759608 13.641450745260432 11.840895892785703 18.709752342886528 20.56690653843551 14.541207129190088 16.70333744800117 11.829486082548346 12.121004769989375 11.51991801426427 15.565027256924143 20.141304638116974 19.19614886488268 17.632559554928257 16.203688396957084 14.507806384763155 23.25984706845991 22.048221039554726 22.467450635569726 17.787236915375104 17.850449334552316 23.089352423105556 21.747186107360854 17.802253871787183 11.832332815645794 9.998389262766747 19.455412917214765 17.372580859777372 14.11244154707477 18.183374388612787 16.767739393864655 15.717665802441427 20.37312096169392 21.36464523540872 13.493924263892437 16.27508574696864 17.776984888605927 20.025425790785896 22.065923734027823 14.765815171646196 21.122919057967966 13.860882229077584 18.82961577628966 17.600836064708666 15.675986563063685 15.796933846547871 20.997627923307476 18.34043236680251 17.230626569082425 16.08061016865597 21.580920056471218 19.883736640268054 13.533003426030824 18.22521370563331 14.56962463296933 16.95802585793237 18.573644372894886 12.278251937515794 13.782500197997663 19.56402114474446 13.436833036066936 14.688611445076099 17.780012103193783 18.677799926088667 14.655511431033077 18.344240957096265 15.995238446152573 21.251281901865603 18.119818791412783 21.697426960144387 23.115095044845344 16.28062938517385 22.70606784156474 19.30152996513382 14.1700563063966 16.709280754963686 22.566212782237976 22.678993059856005 14.714949496904895 19.113568608653555 20.793125936005087 13.092916360467303 19.825253126297405 14.538776560760931 12.871313618577748 20.685696526087696 11.991673208074635 15.50097696956502 18.713248822903275 16.75987367311974 16.588452522159415 21.023078077160136 15.841170524599875 24.004728691536528 21.299527929675143 14.486649931482438 14.581830156569508 9.809035132752939 11.500318990032731 17.928550718899