# vtk DataFile Version 2.0
Ocean Simulation Step
ASCII
DATASET STRUCTURED_POINTS
DIMENSIONS 200 200 1
ORIGIN 0 0 0
SPACING 1 1 1
POINT_DATA 40000
SCALARS Temperature float 1
LOOKUP_TABLE default
13.51900902211377 12.725148901687131 14.037137614939798 15.675839187457512 15.091882351706683 15.027264808879178 14.107993224417516 15.797920136537876 18.652097933226067 17.140294412493866 15.284742479360913 14.798188934812456 16.573234770512805 18.25833234907007 18.298168431766037 19.580163733505042 18.817863614647383 18.612478348839982 20.089236234112118 21.171179257314353 19.178568917057156 15.89665745080399 13.25531640250851 12.895785982722582 13.658490170461347 14.222384633027124 14.758444871503663 14.379698428303971 17.466690793850177 20.391890800102384 19.89856594084148 18.34157383428484 19.335072249256683 20.789609954485382 20.536936581788066 18.178675001716098 16.815885051437682 19.307368968518244 18.307401555639228 19.448213869383874 19.776831480498757 20.71557413723758 20.18893312365363 18.7445340231383 20.15104021158132 21.044640505201766 18.400315040688323 16.07450707479498 16.217440395049504 15.596232532469726 17.033621949535746 17.7169130250577 18.267097291518336 19.742248852674116 20.449705643804602 21.157956621987832 18.17086179389043 15.126550067174971 14.736752712926293 13.6212749919327 15.30592400178038 20.177841120709434 21.704877053928467 21.29289011707554 19.24894890932972 18.072224838871726 19.70104701022394 17.813682214089166 15.481443413908865 14.297455638924532 15.67240186325686 19.144699893511802 20.68783187552278 20.58389099592268 19.384321857388755 18.343421763617314 18.717229445888847 18.36971288882464 17.245351478570814 18.167746702771563 16.745090620028645 14.982674424531941 15.523941930782739 17.471579624851174 17.18265087232968 13.856360561856302 12.979870749450319 16.199090057486313 16.520444161455014 16.6865659746254 17.464283778834577 15.615153868497737 13.422338931948762 12.621490664028956 13.876335428450304 13.308365867477466 13.119748395614796 12.813295514850733 15.16192122803841 15.93245345287435 16.403791131749248 18.479031904602234 17.35708264437831 15.762954080156419 13.511497983332415 13.553807483161165 16.01013424182627 18.106380741886472 18.257649856476903 19.400059188307942 19.287601010271537 16.15204919463781 17.475754980807626 16.946373466799418 15.060168881012117 17.002056541781595 15.138034016467653 14.798597352427041 15.619493518866092 15.708047480152908 15.659134492786553 14.00228765516384 14.311852691797855 16.884791249343877 18.783894101209277 16.962432747210133 16.937480444085082 15.894624382474301 17.180378056753298 18.899322555536855 18.63680175815903 17.159062082336654 16.57976270086754 18.24807622277892 21.24746867720422 20.735843491026152 19.476318824038707 18.69519865388042 17.09117728945989 15.516228872816027 14.721927747777997 16.156097099664258 19.024620689514176 19.71803494105448 17.693085931804145 15.7546443686774 18.658594717378126 19.862551548439495 18.967381108205867 18.01326308417867 20.340252882647555 21.02556729580484 20.99089176147996 17.26241854783595 15.912019721280855 16.88930836254159 17.9959244431844 17.37961236861616 16.27603362409683 15.285473240305992 15.648761887510993 16.27254391253903 15.96490408847216 18.570893739516034 20.13322551140989 18.75123700334623 16.449925673086177 15.078608476028053 16.517860109319326 17.35694118995604 20.063956103416913 19.961612791808967 19.22849815817444 19.79375788131216 20.77272343599343 19.098177872451046 18.689807516448763 17.412032278851854 16.76011046619179 19.515236164091124 20.367965721823825 21.079430889072597 17.38259737170442 15.433622010544271 15.502385320338872 17.66719722456409 18.25865633878523 19.350263686941524 18.03851405354237 16.670926427622014 14.629138748935851 14.141528868893676 16.392878253349473 16.38294580653311 17.111193032791107 16.306482218552276 17.93915309712973 18.418599165164434 18.773707699716514 17.113477348160856 14.242124808026462 13.325473681486939 15.937752021467565 18.28265114663767 17.99144021826789 18.09188538401604 16.16792426108407 17.00549297608397 18.74479757626412 16.53714209878933 15.317843522847138 15.38841222567017 16.783133712252564 16.959272119266195 16.43069843427407 19.578484008384123 19.607457522347836 18.899477793709814 19.733206586891136 22.221024974246543 21.10094369612631 16.823924747617095 14.099981374836212 13.132720857209076 13.734250622615491 15.56059816424379 15.430619387126267 14.424622944046682 14.872563158885951 16.25400135519233 17.15657241238472 17.45689356889936 20.29603742302943 22.61744063078867 22.396346514922293 20.793575765600675 17.866700477236073 20.137935472929406 20.13953410992651 20.891338984942124 19.939252182455682 20.561951890429963 21.795603391459764 21.34554037675621 20.848880096880585 19.54992230771455 16.233143898943414 15.575642186359532 17.140743473074124 17.17665155875493 18.374488640288792 20.03463517434571 20.710434125321587 21.34523934926084 19.094884624712837 19.130216843359918 17.88944737860445 16.371517381775057 15.641448592218323 15.02360997530021 16.750938321246302 20.048755900072475 20.36310637164391 18.160488180592 16.08516416204987 15.629370045746839 17.04194956029414 15.389479518529544 14.568431695354654 14.37021225913179 16.623160340887633 20.60653039039675 20.719904956510874 21.054832282525854 21.274882586886964 21.242914718063595 21.74035283904116 21.00755505976824 20.731569161043282 20.62410152638867 19.562370404608956 17.396583091057195 17.00364949264184 16.588616069648356 15.380990007181655 13.1728194846835 13.454592559766562 15.591900773717986 15.682099775535773 16.805904091592385 17.249931502029543 17.16246713278266 14.931050574279379 14.250967237815948 16.945907548500774 16.972097050969253 16.517680428049665 13.978039239840177 14.912551741502776 13.974838084775767 15.38076129497817 18.120596658241308 17.0107156822352 15.653847966682909 14.072933292853163 14.661831392750173 16.85865829466632 20.591103768029473 20.495653918657997 20.019514880743728 20.767697883414318 18.802680260754993 18.66106985488572 16.316426241098828 14.074818095044465 16.267285577091577 15.559986406686484 15.46241476548591 15.80687518312983 16.62915921282023 16.001451346730473 13.602948616624161 11.978162083386255 14.176794025727743 18.96603603062416 19.774130728180726 19.059480128782095 15.898127487983782 15.527822183556472 17.2970273146867 16.1340013390891 15.31335882852652 15.422926943662263 15.908598298199639 18.9485865554589 19.2834184442199 19.266349853076395 16.43969216749867 13.841488988311026 13.087948260317528 15.376571511468335 18.25381409964476 20.804003454859505 19.951567539555207 17.19664219020901 17.102034952772907 20.49614121269695 20.098164733710792 18.047807001221333 17.684741090017027 19.631241935037448 19.86578525169881 19.77756792087436 15.955727468957372 15.05432524063158 16.32882314587755 18.420689094899938 19.32841216322943 18.218394931470453 18.389600392545475 18.625964681394365 17.12579593849213 15.991705069846985 16.95500075947535 18.654026384836143 18.598972180607085 16.20474114251272 14.06237702220862 15.042030388347245 17.13542430492586 20.308528905894562 19.05657302413289 18.023394887745393 19.03821480567582 18.578367591015432 16.14987185170117 17.336005488795003 18.683412053323483 18.999069064388355 19.52180938346297 19.57520428632291 20.327728992093107 19.40033628168244 17.916435423335106 16.875090519411874 16.122729746734148 14.354875795898513 15.494208857503658 15.863959104149377 16.072923489806737 15.349366320160106 15.155225223811414 17.185739748526018 16.741321006992806 17.351234963909974 16.845037959051083 16.621386085496553 15.791566024789148 17.556996152203517 16.91514692972175 17.196656642282694 15.720948366078705 17.0945227606379 18.647923596387585 18.392253960710597 18.311306648770785 15.663291110799639 17.465874143606257 19.665680186736918 18.01934343048024 16.666720962834482 17.093938719261654 17.26097257699603 15.385874071806326 14.314759078525912 16.30133241147277 16.57235439794469 17.640086066330795 19.177389143654683 21.094523099887986 20.797866768310357 17.590947817857664 14.758498313849643 13.260334577698025 14.818247962266858 16.92091925892703 16.019984206679748 15.206508160074812 13.625547487229134 13.619405828580334 15.269588030868976 16.125947633990112 18.61169036835899 22.200452477400148 23.460439394435785 22.743692649115747 19.588864145672897 20.755167346553243 21.752095983892698 21.322218370793635 19.982302864907595 18.605494598937476 19.140394148010476 19.73597170524242 19.299055898623028 18.630550504815705 16.18349658972117 14.810691873653457 16.764694460036715 17.88823775892024 17.349262065880144 18.582528923266548 19.20459324720365 20.00502322080682 17.902521912520626 17.88223980872395 17.396608261743292 16.382855838054407 15.111871268015891 14.06186070173209 14.389783406208501 15.761783337377267 16.938081693104817 15.186662209812619 15.354413541010732 17.232346727060634 18.90580752250271 16.826105307867852 16.356297696073174 15.810320241169205 15.853464374709285 19.523183760462775 18.66218563285567 17.814360702349262 19.070779702949864 20.36266207981525 21.58693234194298 21.47470737478475 20.891148563601032 19.906995136217866 19.401625400206303 18.3435465567722 18.628098318496836 16.592528685021232 14.71685567650321 14.344994255634383 16.28130301490837 17.02078764726163 17.24550761213099 18.363066858528686 17.365737601194816 18.368364379862523 17.545528183505926 16.688940388484493 18.069150269706487 16.751278487958363 16.647360176878763 14.646215648644443 15.553558465479366 13.79205399766881 14.487460002915215 15.693225089178961 15.692394575028475 16.823332562887426 17.230836097176166 18.294156764414296 19.34021367529087 21.856993543387134 20.34626055091239 18.24750300568109 20.10706900945374 19.76646125798409 19.566272088526915 17.468597453581193 14.289222058500199 15.637908566128127 18.137650476228387 17.886341744060005 18.166708376350407 18.473216109464296 17.192554025239858 15.550299747645173 12.542055023159305 13.860863988226676 18.274498135924794 20.77521173121768 19.720955188014056 17.795967254927312 17.10318638422541 17.423806576835325 16.782207500999714 16.338978797150762 16.40385213531148 14.912904055937904 16.68350602368079 17.19618829650077 17.32310155103771 14.97123452390196 12.691036399497069 13.716682937513577 18.392081143160734 19.96820598802498 20.323872187126657 18.348788727689836 17.520189331604932 19.58765684994071 20.87750624940158 19.400346691059813 18.465367531085498 18.539941342838816 17.008417744803086 16.922287882941486 17.482634635085137 15.309312390127623 16.003657908083618 15.688261320167133 17.175550128645778 20.136530651968226 20.158070707823608 18.57180946646935 18.593825133257653 18.796273862476376 19.5045843726859 19.405127353365682 19.65045045294821 19.444847169185934 18.22240883652316 15.345076306874335 16.67668280748058 19.230301809610328 20.4940234906479 17.315443682827336 15.216514953319528 15.434562360228702 13.446820009127617 12.027766816083183 14.07671090848121 16.271735748604822 16.70442776590376 16.478667114982567 15.033323734218731 15.721409558749745 17.524403946106826 18.309586362828984 18.785513255990104 18.11622131365924 14.37080914179762 15.089157920672193 16.368577767121298 18.369942920705743 18.862890730066496 18.0868997341099 18.171795008279904 15.857631075786976 15.589145896882068 15.812447186147729 15.55046112572308 14.862505658669708 16.96605870592207 17.03405148501878 17.321061311900074 15.775654495551693 16.765310592053307 18.08199678700286 18.742833035895465 17.002284203643338 13.287798712431126 14.579692161250053 17.86100813791632 17.728638865847774 18.820349743311734 19.603992196204107 19.067401096359358 16.52235070501457 14.793266297610764 14.879472252049002 15.580117333553213 16.947385584472773 18.769781869431206 19.654779705224957 19.795114265300647 18.02573424635133 15.048670771473635 13.866299774340995 16.062142187898196 19.324923096105273 17.690471055509054 15.451706217634285 14.007665602847231 14.231441931305994 16.492862961979856 15.994395865117575 18.0018743876087 22.135901073410995 23.4196940134733 23.136118465915168 21.08229127709541 21.652466067076844 21.248995977083187 19.43827364410384 18.834544849723745 18.015949427830776 16.789420713609672 17.6953600818262 18.33881613845291 18.862793599448143 17.901308431679933 15.709833546739903 16.55878611958476 19.754976553657855 19.17273824101336 18.836461329819414 17.325464019495563 16.806674795683502 15.440950521840552 16.514220550752107 16.53460206270807 16.96154877561979 15.60437005812218 13.302490490360517 12.960150725983862 14.140669497432391 15.590755486225492 13.762177035581061 14.222803831421354 16.202884622979223 18.385566513417917 17.787563617001563 16.330981457809187 16.00377029877997 15.20567568794366 18.219251130250722 17.591554470953643 16.169409012811297 17.97260297442702 18.571440599470513 19.253326311815865 19.301620618196097 18.22353671407517 17.251749121614047 16.375220634939172 17.24039728492102 18.47740531339689 17.168119326507476 16.16867201040481 17.567550485770926 19.830184892609818 18.189041503857556 16.31348585931102 16.40874272262188 15.99228565074162 17.74682554518792 18.694544453127133 18.51294011371813 17.20186864516176 15.051486714845918 15.08081783961851 15.421332937678413 17.587874907434262 16.288671142116584 15.594128548777466 14.789306461932695 14.766586111358292 16.10241266851324 18.192213496655985 18.525648951687657 18.66081278474859 20.298090759055953 18.315574785809314 15.500615575999706 17.126193881387913 16.08571880387496 16.986464556992683 17.339368650479468 15.824549417854685 16.844155129113364 18.033702673445127 16.565877632115566 18.093073796342914 18.237870702541002 17.900920119835558 15.635880213159467 13.48809308671762 16.001500701632963 20.13855631507337 22.09799625290391 21.24720399612957 19.371990285851524 18.83265203722159 18.374788590763334 18.47094649311286 19.009942289259516 18.867748733607304 17.04437445933372 18.59187461085824 19.060013159684313 17.51969708701969 17.11817448573471 14.699588887951943 15.812357285391679 18.729463355521723 18.44835822337472 18.063939230775052 17.205489349215615 18.314907705769507 20.238875326993522 18.943769680942257 18.05618348232538 17.985751140605963 19.278858431692047 16.75400409760537 16.48037120531022 17.935588732478625 16.186255941659635 17.231297297142426 16.62230207058238 17.578684442268873 19.674276162453555 19.803144802735744 16.315464586650066 15.098527985051877 16.363679502015525 19.593191980238636 21.22006059712471 20.712679383570947 21.022290307235714 19.25538066392413 17.482384597078884 18.496181294235004 19.817751598031236 19.326955095486543 15.57125530067498 14.161572663128135 14.281019374303025 12.817811516534102 12.827079145370135 15.757919096352767 17.9726365619917 17.364968032231673 17.716137263257476 15.238982127673358 15.074233247096183 16.82788354872344 18.612624823975032 20.591414675972118 19.56154693465346 14.646775622752783 13.146865566767469 13.950582039306058 16.997238764269348 20.357449839105424 20.690197622995445 19.233534083621006 15.538650603710899 15.32220131403516 16.357294141884978 17.284074298624738 16.64204846736283 17.804831753198272 17.843250606859264 15.865319655050735 14.909381797136161 14.673479737230831 15.380859650796909 18.715247710113168 18.672763161478276 13.980146843849544 13.264901624552301 15.455675682647154 15.952610870340598 17.236282948796998 17.905187900041525 17.88898917527117 17.99846123023463 18.095374191367217 17.752394971115375 18.243971386257737 19.902098468842752 19.967166126445207 18.228651319857722 17.612944986581116 17.232877228751477 16.844700362421175 16.585583191370237 17.97411679072836 19.9982864883348 16.780569550730334 14.659860463328473 14.227040730371474 15.657763553650597 16.649017209519588 14.591029907770393 15.762502194894724 21.148542473836756 23.48784140669466 22.89438627698954 21.58536286325613 22.4662807426991 22.79593178585057 21.606518549146983 20.201369160510826 18.676912581095177 16.570988639596553 16.466927432334163 16.451744895578383 17.492714102489302 18.83017082341313 17.831456219642103 18.33825921969129 19.975936745145543 17.82309271035227 15.617706130630854 14.576077839717197 16.052299359664996 15.162534155146545 15.862828548787874 16.23541027093432 17.421071257960808 17.89052862998202 15.949335523714018 16.12603133394769 17.44489270670995 17.093527960160458 14.842598623570062 15.271045193575933 16.048447963132336 16.76505303382929 17.91113291687137 16.36151990971119 14.69156093105292 13.29676558313393 15.809876247596055 16.50672077800057 15.26977407958935 17.16008280411967 18.004963427470717 20.279191966816914 21.40086167853029 20.804853169371277 18.374876566786348 15.764960786005188 16.819500121395563 18.699274844131505 18.06047996251894 17.403519487334826 18.65743130858804 20.869977278975355 19.22929407455518 15.422311730530117 14.186729572543413 15.655109160528276 17.1185052749442 17.19164965006356 17.708488957380393 18.090451814169757 17.052181333573742 17.062121458224674 16.924347263402787 18.580765122801463 17.35507408420537 14.572103899139025 13.791498906582333 15.939970716706414 17.386118588048717 18.626620185745075 17.887842386518525 16.555148636024057 16.904865835056665 15.380941096157416 13.365576084872991 14.257455084322606 14.858363789414405 17.959987239908237 18.22400896160626 17.392255023396668 18.004781516889324 17.042998953929484 16.320503237469232 18.492105597726987 17.938906483362388 19.05568278718993 17.236354340196925 14.83849870031349 15.806895745800961 19.715524404037197 21.35094371129773 20.308303330555294 17.81507886160592 17.497360255921887 16.279363106598577 15.312258001411875 16.33671980720047 17.46025097867145 16.939578227921206 18.461617965882205 18.10740135747781 16.51578853549747 17.289038392676392 15.856923228952466 16.26843956122344 16.157574165980066 15.816255518862889 16.771181906138345 17.5855311136991 19.171858355647558 19.88651268479539 17.672869633844343 16.738692850763194 17.4958309178162 20.066225183942265 19.282966151739508 18.542347033781358 18.376033657293448 15.992778339283598 17.28156803841598 16.288896044272292 16.13326545288626 16.37592994100595 18.137575087264615 15.926219303827235 14.016898251566298 15.370536903400838 17.338321573657502 20.31975156018803 20.590055389749473 20.83390540731949 18.820252149760673 19.747631968264653 20.42924403025468 18.027285467839647 16.272953050083938 14.354714410404446 13.420492575144188 14.735327292696322 15.498090852726973 16.252939411050775 17.519551246347838 17.795847652439594 17.49343543268412 18.790360703531885 17.412797340691974 15.946882572094198 16.13035301280837 19.09507833539045 21.263398762870306 20.153500064772153 16.063081681427533 13.014921724089021 13.33846661867414 15.986770144275214 18.924177167980424 18.457197210323613 16.610256869701246 15.377382724823349 17.335143437417177 17.425037876647902 18.327733716467616 18.086378469334864 19.00513363165403 18.365323880782224 15.509642415200258 16.613578483419754 15.278957372775109 15.132682617621661 18.215720174429375 19.879596683022644 15.815567746206359 14.892947708777026 16.053932893078883 16.0095046086575 17.41991745851637 18.786508921128224 18.448318139572446 18.941000560774995 19.646289257594656 19.88292050864008 20.60958232201505 21.69479923870201 21.728210241667295 20.651266673421407 20.346592924032073 20.436593461046577 19.891139389925637 19.038261750459302 19.60622337908457 19.788603202573647 17.314887845749613 16.489451685842962 17.063519801208454 17.488920856721325 15.823993506089801 14.376583319219295 16.25015002439041 21.053413870165148 22.83347828554356 21.599916871868018 21.338785231899543 21.24773229777858 21.758208399302656 20.759462169781628 18.680800333971607 18.541295846310017 17.82145959183947 18.45545565686194 18.37149799034048 19.417509772730327 19.96847275327715 20.195997325829822 19.63309471866872 17.42968501499051 14.66380236780282 13.661982793901068 14.235159337293265 16.31793938291653 16.9445399891246 17.243329719765473 16.964648733119493 17.932746220475313 18.47313276449263 17.654198236846863 17.631629174954767 18.75638621281524 16.410014741156782 14.462967560238807 15.447260185050952 17.360767631946526 17.934201078514157 18.888511858329423 17.971172107081568 16.204759131657607 14.482438267253158 16.91819765987244 18.212113381353745 17.7577273344644 20.348818295832015 20.91878280302493 21.69130293956186 21.767077889913743 21.145935961422126 17.38080767323836 15.575900203358454 17.32893638066703 18.71221679047472 18.548987804967304 19.686058258544403 20.830268234628264 20.691878134230578 18.549620604935477 15.204162993354483 14.16873581949368 15.01340251820508 15.998919748017483 16.657146642707787 17.881376882930823 17.506970636110193 16.334781588497805 16.705629672041482 17.148260870878936 17.895039607624106 16.526011083812325 14.323073505335191 13.94790123470086 15.666307657767133 16.765193210780012 17.260303422570207 16.38187589713592 17.209583742169848 18.361067128264903 17.458648975174324 15.450814362573382 16.187502092744936 16.980931938430732 19.243282006226085 20.033001487730377 19.827163744490978 18.912693272429493 16.774063793647077 16.537618291088506 17.74164653579134 17.476898186488153 19.359383822093175 19.30711408765775 17.524781822351628 16.501068732068276 18.351548594406523 20.157799817384273 18.425000947708924 15.582443583654955 15.55450097965761 14.826097383695306 13.881894025246538 15.14268241733319 16.370145030981586 17.207234948076987 17.21161062481266 14.932559549266267 14.558519999345094 16.888512169835643 17.470776754219212 16.851747511365964 15.459720491585115 15.553592581843414 16.39353209277662 16.459286415602676 17.356645584982942 18.89656638469215 16.391434061128553 15.329213866580545 16.791272753446744 19.673912692520513 20.09415461894121 18.884196361854453 17.262097167929706 15.718467624593371 16.481916521452696 15.33396845897859 17.00839928693486 17.134778853174392 19.107235637687992 18.277786210189227 16.249687893043554 16.190954549969362 15.24077554103182 17.192413974420393 18.012477337527837 19.17952324455473 18.53605459787869 21.05065416125048 21.915464414552297 18.11999018919587 17.277886327636768 16.36548815945005 14.524388738747044 16.68203172721922 19.240991992711404 19.38046312373017 16.773215283932377 15.673805817999344 15.785064281427823 16.272458544471608 15.749834877296001 15.724992092705842 15.656560158216838 19.433002264575748 20.235218846570625 18.68268565758317 16.99598277855777 14.237992525465664 13.930256161388842 16.47337698143846 17.21983377173513 17.36009721733185 15.49721594256873 16.44422635469112 18.6031029514113 18.286452066814288 18.09784838714241 18.284034032961312 18.12826130322957 16.401613999015602 17.203431004154055 19.47573913587472 19.50030184326132 19.113434978258805 20.479210373637173 20.690324174826117 16.5588356356573 15.990873805451127 15.80642159589441 14.212918267663659 15.621699771661783 17.17347026620343 16.71663428984096 18.728775610948837 19.185290260644067 18.129516594037504 18.131467217481504 19.59538726722133 20.84529788846428 20.189697053220694 19.05947528157604 19.858985418676827 19.668386805224863 20.64267925508117 20.678867476774382 18.11822584559805 16.16132352686546 16.044653377193043 18.336392861190767 18.37666407274689 16.60429273072835 15.036728888493657 17.70510296207264 20.051217337294197 20.727771896708862 20.124424013958667 21.729236099115653 21.850801343144692 21.56510313134562 19.051461848744726 17.31763567256991 18.314675606046976 19.523161540838235 18.31950699495178 16.95128113450772 17.534932554917813 17.691619413131654 20.54643069975912 20.454474477017847 15.985114969683053 13.502750724636924 14.56872763439035 17.055064379215743 17.634022700628435 16.612710626667806 17.67681447593462 18.666531344541088 18.231467218689293 17.29403393409228 16.9323769314429 15.956758680876268 16.580450096602863 15.267022719883416 15.942857714535977 17.269099384134172 17.847517670348722 18.800701891971578 19.372787580801692 17.789018187274902 15.055488094309938 14.264770261257299 16.74910668569588 18.682641869324435 19.61123460779873 21.021635255361062 20.50475892962892 20.099220560675818 19.621374314551037 19.282653859078632 16.205464912103537 16.431960226760655 19.28380925290733 19.850627080333634 19.617322490389814 21.393229369894645 20.63808091203985 18.7363074130042 16.068279162308038 15.51255423897304 17.43708051087814 17.32951126916214 17.492680290532245 17.649103761154528 19.105095311179202 18.36564277019802 17.490877219088695 17.78315917061322 18.682824090534826 18.66483211138929 17.226332178292893 16.24600138198348 15.741562919453646 16.898594424504093 16.420387698116635 16.909306283616104 14.938002357758736 14.909906261688855 17.45993543755354 19.393147358710266 19.235109760765084 19.43814149675074 18.923322388549277 18.68741648891001 18.228438731180848 19.245359914559092 19.05619671077198 17.886133604473017 16.111881858570374 16.584971141493295 18.43758106369765 18.52211398874762 16.896421503644458 14.50541017908566 14.606357846509662 18.47567631969922 19.805628481126192 18.042499576688265 15.52535675303886 15.212233401741324 15.33179576272586 15.676273319871141 17.50659929120477 17.203951727535973 18.756424245459556 18.3193064744294 15.587233700636768 15.346987639959805 16.15400102641667 18.37285466189201 17.174889281451712 15.728905331393333 16.41043847655477 16.355232066301813 17.384517886791734 17.70768848055959 18.702719832365187 16.72638842481565 16.679979109857282 18.87036397291251 19.349023681754073 19.978112630184405 20.27312360982762 18.94652339747017 17.171028154361366 16.541308801222453 14.544621899370728 16.463267192055984 17.626055706139887 17.63364148435145 17.50848258221523 17.52747444044962 18.164983827281453 16.616869132175278 17.496390987704032 16.99794116466516 17.368137005922016 17.123512680002044 20.048104247028594 22.241441721507805 20.066098398594686 19.835449228447935 18.610456182206413 15.665130913541672 17.028451335964117 19.52334372998827 19.05669303403922 15.237525011495471 14.717912848503198 15.465762217804713 16.166445281351145 16.585934751493426 15.971979916846973 16.323404275175776 20.082567237699305 19.52649284621401 18.819401595895112 17.957921385405058 16.54089127506937 15.482833222916357 17.18890045604877 18.098000902219354 19.514062126309845 16.919764247836387 16.450437775979054 16.919829731729184 16.105883170709355 16.214797487955636 17.819003867424023 16.052251661635733 15.111014500728245 16.457652285609214 19.400318685072435 20.707216376170674 19.97004779997676 19.9511975970903 19.28739086024275 15.362239810247504 15.160113979214573 15.612047190578469 13.579778191295254 15.437111144261545 17.252180123470115 16.612159500679596 18.394889475584318 18.758365706257074 17.11494832623783 15.68742178735729 17.530941926010364 18.879349785486433 18.133848020858164 16.14687447882857 17.464877462898112 19.668881202317063 21.6779862958043 22.480656311938084 19.660192169682922 17.91369654999669 17.302471988928023 18.61397806789664 16.765672589355564 16.053091550756438 15.92980079139638 18.240535020340058 20.15283584300916 20.78427159820074 20.930895419645328 20.648796551723528 19.277769022002293 18.814224874497715 16.506713840616623 14.93668482895057 17.31425869867859 19.733180508919116 17.05244661748786 17.030912585201268 17.53192036510415 17.5854175975242 19.194735940192746 19.382380501142105 16.217521397923765 13.616436387678947 15.186667375223674 16.948326534571457 17.6567293412959 16.728220621686937 17.07278997149307 16.636650007042704 16.188050503170764 17.237306955466703 17.00291917634742 13.950825460514972 13.533945236049687 13.921460604172777 15.562954349337463 17.0040536669747 15.754532570491802 15.81353382314175 16.800029529416026 16.93317536820419 15.036747694733824 15.355902369275888 16.92451805439825 19.65381523588769 19.53692557913888 19.454222370922064 18.36841316195187 18.547905832537243 17.53904345723379 17.574459005829162 16.476759501191246 17.32166808741395 18.684570040589477 18.137388452393992 18.232249297389085 19.659114136391274 16.613219063342644 15.00937937942798 15.608413753259022 17.62360403274858 18.14415110980583 16.45052024848016 16.59987953588541 17.018538671402855 18.780614798840904 17.8499831767982 16.14982798653291 16.471310092501422 17.163473689273847 16.883490041542725 15.722320940139754 15.129508593562678 17.56938776193108 18.672071783167098 17.08516367360365 16.553723585192643 13.628240506580031 12.731260556025246 14.187870340188125 16.91493724633991 18.837218933336487 18.33454871111488 17.869758724134087 17.89008595098379 18.195295975813412 20.899943690250662 20.998244873101818 19.753642665070316 18.366078586605393 18.402914678741993 19.84371476037129 19.808134451182482 17.862492485940017 14.291422973800575 13.005462564366695 16.348111052326278 17.6162314778498 17.363556931011416 17.363676394668207 16.55596758990974 16.653594122369196 17.97977512720178 18.321673610511365 16.539538855365553 17.73122260017542 17.845689793402855 17.84625437332121 18.068963835206777 16.56288305813688 17.468446043703747 16.089703256478895 16.505142217529027 16.314007921154335 15.689750309092428 16.310855375257137 18.421439304977064 18.823805641010217 17.72970367640269 17.56965791898527 19.239794538486713 18.405318261750505 16.825533003626607 17.675521639956393 16.522204980583282 16.47030928478117 17.148681617662493 15.308644152586526 15.99703449216386 17.255864539966534 16.730677390303374 17.229147929345352 17.76636360138388 17.32596864110157 16.05520385830737 16.87917479765336 16.81857290028663 17.900850999888412 18.46032851586375 20.36564271990472 21.12599573669439 19.3389946319069 20.021484222919078 18.24278344418103 16.33377888449284 17.324610290091464 19.36030588859297 18.986262893508666 16.249571615390686 16.675175811505195 16.872227643852696 15.88323771173496 17.268022380251093 15.528976825440584 14.783744912041342 17.31415373983546 15.921631907585963 17.026376443087265 17.66213289271786 16.814065113092695 16.308270125368402 17.785459663129974 18.61365002726687 21.025925833739336 19.508577260543806 16.511899539045054 15.291604630236234 12.970342387172282 13.7999845851