# vtk DataFile Version 2.0
Ocean Simulation Step
ASCII
DATASET STRUCTURED_POINTS
DIMENSIONS 200 200 1
ORIGIN 0 0 0
SPACING 1 1 1
POINT_DATA 40000
SCALARS Temperature float 1
LOOKUP_TABLE default
14.130274469504624 13.321044344007731 14.392441154276328 15.682564176800874 15.522548040953659 15.304404241155774 14.690722715618708 15.872844820736749 17.757295454309414 16.82302363507876 15.466820052294803 15.249148503394364 16.579970704217924 17.84894549827742 18.170302500248717 18.98818283732057 18.73724846583916 18.904574591166774 19.967699059948874 20.635758791746852 19.1395462877685 16.382347253015105 14.10132064266582 13.52974419589452 14.041258226449235 14.478642348937605 14.764039067385626 14.971837665034373 17.275075245697373 19.390586699849983 19.223616403656386 18.2470771335157 19.022233035516958 20.133193793325443 20.016811584031508 18.403553004643467 17.539803020775228 19.15927367683581 18.999438734769875 19.60459653345454 19.91557080772435 20.305999413797636 19.8031250191326 19.002746688214984 19.88415612353223 20.230184678871936 18.20901749621857 16.399461475323935 16.177655253651974 16.06082069497138 17.146326766931452 17.881687546164816 18.345146452490525 19.384192118272765 19.997128631675217 20.420920883694198 18.388635021779095 15.939314835079111 15.079484048669777 14.373053248135536 15.829425965100429 19.360693206532577 20.808932136520962 20.3319475640115 18.75015396110581 18.016075249705835 18.79600375866055 17.356786926215307 15.474785196373835 14.632069288072245 15.828856297129494 18.616091496383355 20.009282124174938 19.898188031302833 19.021373453441612 18.28255759684983 18.547665623286328 18.54952155866345 17.98688728525918 18.175584276027635 16.96449874121112 15.713729575637709 15.999294646564076 17.083564171836898 16.67569674800281 14.311947482600159 13.664968309324584 15.694100908468977 16.566877419632227 17.003849411173803 17.241171834107163 15.862199910149485 14.102308285175763 13.44640691519294 14.12533698998808 13.743161271085208 13.463288215409486 13.478935354269186 15.15419238935765 15.925224786577129 16.623122922971945 17.842605190873222 17.05686479904058 15.678577511396515 14.086547230858564 14.373253778764928 16.535433504648303 18.353250435716458 18.57380005340768 18.99519478480993 18.77269179103953 16.926459491837186 17.480118997556996 17.01697032726684 15.847347907672447 16.817503167675707 15.865055409217582 15.430867405287445 15.743929085723435 15.85858219626248 15.402402773016146 14.219686186659377 14.592280210901091 16.64127676338097 18.215059831975683 17.372713264021677 16.970000387373176 16.431704008895206 17.247277115981827 18.387366204686916 18.110693640127803 16.943863585123484 16.63507277355331 17.952391053986553 20.147206370082383 20.081592282332064 19.15472603164743 18.120279256781618 16.636223941206367 15.429790060497146 15.190452314520611 16.627583191191874 18.900571050669516 19.202262170154558 17.71754536501244 16.718947347528843 18.605780996106887 19.518370279292395 19.103839527860075 18.62437246284453 19.83252039192414 20.46441851250625 20.237296928309423 17.55165871548513 16.290059523583196 16.997076908373497 17.841181332531423 17.526214674535865 16.580026077120856 15.87627330121433 16.154948620811165 16.68771919940078 16.911347902710453 18.633681097406857 19.594415439443818 18.500959268757747 16.566621877005822 15.455108321947218 16.407173319043405 17.44773687691455 19.397948562286434 19.5571776631694 19.144418197208935 19.57908525047955 20.023388470287216 18.87574741321391 18.36293007883153 17.67383227174092 17.441143171538947 19.17233578065031 20.068434601802185 20.322307926067328 17.855427675173768 16.18102793108928 15.992817712132 17.226549754771455 17.791215040030025 18.528724783729047 17.733061859270986 16.667812752394422 15.13607539278837 14.694071942382358 16.120456927821166 16.505352295962265 17.003185477842806 16.711601501107705 17.60720489547763 18.19551743653374 18.377034525781045 16.82033273752143 14.781051336205891 14.06700213385169 15.826622182303815 17.612435560851438 17.661142850766723 17.444606112229927 16.210803361045052 16.972227150069294 18.25057328777447 16.879249771156033 15.729710727852364 15.74952715392695 16.674933556239147 16.86481800933318 16.840269752931054 18.72787853679486 18.9972953101807 18.900728150144555 19.854253095622237 21.389156801118116 20.342177136127365 16.996508302864637 14.400012525320221 13.436899278876908 14.050855768076763 15.328950172688765 15.32097670738398 14.746649541102318 15.209845732734292 16.387077172529928 17.193094856666566 17.713573194184395 19.86666287444883 21.89211638135935 21.986150742622666 20.551393202093443 18.652360364204142 19.874751057689114 20.177293742169137 20.54635552951002 20.0844887977448 20.367350468431844 20.97185383389049 20.728144978615283 20.392046858149325 19.319733557769027 16.85355043910626 15.91357579870427 16.80397597418139 17.199374037073298 18.141617298453326 19.402278488825765 20.109006836930803 20.52251445317587 19.313447278345766 19.024733272828364 17.828752645970663 16.360822672789663 15.510582732733722 15.0610873185695 16.46204236324432 19.050628506893982 19.649434386462058 18.15358205191342 16.628537949905315 16.39280224615216 17.201374896138912 15.99759134460275 15.048627275268581 14.900434017679084 16.641247070754943 19.69759029133238 20.344288154481063 20.49521883897398 20.641770156734403 20.73182685857424 21.086697524387805 20.699574514056323 20.297938916016623 20.02074354342177 18.99498765625552 17.437932102051796 17.016840751730275 16.583354939797307 15.44393040729117 13.83708145604542 14.07164465235422 15.617732072101575 16.108958461127177 16.90099178990693 17.19446500268815 16.85714895704867 15.313751990324347 14.827183970029344 16.338844626031744 16.35738422296098 15.82333262538033 14.368522181044133 14.846705854963002 14.546549975087919 15.59061538518383 17.338558935423794 16.805194709404176 15.790078801486702 14.744950263125853 15.280478432592806 17.267295470894325 19.909787345544522 20.083525851593304 19.792113455634112 20.061589681640847 18.758255045670218 18.314138954109957 16.56778373360876 14.890117293129125 16.011520747500338 15.909650907278873 15.801383122905207 16.13905458848383 16.5546864356396 15.879894460719829 14.041503058471097 12.967433869957212 14.86126626411051 18.334826858091517 19.27329751227517 18.578008136546185 16.54910043059295 16.25285676931542 17.192143056258317 16.5743338553002 15.850606830914924 15.818299146009878 16.438767165513358 18.59039525490831 19.078026385524982 18.671210034685245 16.55949733476947 14.437922689326122 13.962778037488713 15.77677148028327 18.124599586356986 20.002639416957475 19.43840798213542 17.67161394852095 17.708879585490028 19.80320396669587 19.7241870595697 18.445100830669116 18.14856032888232 19.18700761191611 19.516753332609557 19.135046161646738 16.46081711368206 15.620034361724924 16.474404193779172 18.057483520687402 18.88373378990499 18.301697096820366 18.027665145839087 18.020550774696417 17.2785889121148 16.7754782852365 17.616009780285687 18.736163436766528 18.437135878522643 16.548772282184807 14.883007676974756 15.663692255640736 17.537368438721142 19.66395632775705 18.920383672425842 18.063492767403893 18.4469165360953 17.944094599984975 16.464305281307404 17.123358496998687 18.07808054690562 18.449841451268533 19.016216618720527 19.151717384947457 19.558768519436455 18.811869178151028 17.725687702498504 17.007249340401447 16.447083071294728 15.271170918079228 15.855378007715641 16.181360934563596 16.32525387549424 15.825137387072989 15.724458447510754 16.893877220977505 16.703291595707647 16.960284700684056 16.69530625807082 16.604208207033416 16.34887107234055 17.32810791390686 16.70498612599646 16.66065378622984 15.797764535544665 16.88585944322044 18.212453339843464 18.28942787849453 17.779908214729314 16.002835610673586 17.090664625073224 18.73057469176744 17.81193999532506 16.969716484251347 17.148520634470838 17.155215996403477 15.879782188572785 15.138868959425999 16.39148606856394 16.947012235734416 17.841012709439788 19.246385280581777 20.680208834061666 20.234853188624207 17.563102860674885 14.9672249972685 13.798667826741104 14.960097457214555 16.609606506283292 16.09682253594752 15.104808499240892 14.108738936974625 14.326562073847443 15.607079755020102 16.554752328600536 18.867876016060343 21.852222447802227 22.96769205766757 22.207073559680794 20.13426275676999 20.744296674553244 21.28571875401859 20.897024658741284 19.861339542891468 19.00794732854854 19.184273188365125 19.52104661007515 19.28279868199566 18.53803315736354 16.609980325244653 15.526843252000383 16.740858846189138 17.811261226051478 17.882256112679325 18.666662900573453 19.10273984961703 19.368526225462173 18.016370254334742 17.80242737464295 17.284786828322787 16.406849326214527 15.285784253570066 14.34917101731112 14.718762119422244 16.064729767032233 16.838362096048687 15.677669923683993 15.603866312956093 16.89988237251149 18.096169952736034 16.92158879522589 16.16651570570182 15.76831356430152 16.29786901512409 18.861283722002977 18.74487299043685 18.295460465043902 19.189363647655988 20.194357622682354 21.084613451167662 21.0286389818212 20.457852126335254 19.65726592634354 18.948853070791163 18.19795786141145 18.092191071102295 16.688154230547905 15.245871533700615 14.958173580586067 16.237249873737493 16.89851444238874 17.034634958302345 17.6477198563018 17.367429756098385 17.864997666221388 17.32439938621447 16.83823549137518 17.451535436724242 16.653121175734654 16.20661144734078 15.033306541659234 15.421695589614876 14.480115564007358 14.849809451509229 15.724912604934318 15.882587424959542 16.528156647623312 17.008591443085695 17.861626844517744 19.05578889260412 20.852873102353833 19.9496586415794 18.583247005160516 19.45511649604355 19.14465629947975 18.829251683043864 17.189908372009963 15.110502786149894 15.999292583620777 17.44718466597503 17.468176575189936 17.814008789364056 17.965650023732163 17.001382505042617 15.230720458869891 13.281239935655696 14.65476126644656 18.286467204610812 20.282468420261917 19.624675460672396 17.944935326914937 17.279666182040014 17.395731647508903 16.94479268735367 16.601680323785697 16.44951329099907 15.790708214313794 17.085777495685733 17.60998221431366 17.30053444702512 15.470841091895945 13.65370651834288 14.4325660652802 17.643350007855105 19.29254740824273 19.72502685413484 18.537019776632416 17.97235727299343 19.24612969215344 20.1697788635686 19.322822728528998 18.50197017840683 18.361797044842646 17.517591058223516 17.369815234752366 17.484084049843702 15.908454070721193 16.000302683298052 16.146953114631177 17.523511591011598 19.518977281547105 19.576675501002963 18.408494177701883 18.144163397358604 18.316744997954594 18.952802513285487 19.32272228667449 19.58838721925608 19.3333962257595 17.946451311571863 16.057472093472704 16.920006285278365 18.82727500458517 19.657101739081774 17.44994405177328 15.765788015504658 15.517310170884844 14.174982552888771 13.25846423038829 14.799062327661412 16.55072072766877 17.00315389745699 16.888364967705787 15.983540825028518 16.40710411392759 17.549903203180108 18.232893424282988 18.557267141219473 17.670724626196417 15.034152471047062 15.063406111594519 16.10331918528404 17.690648148874462 18.376184871402003 18.07017504403573 17.830376141627305 16.213782914096736 15.880313705190657 15.986986445633459 15.891953876953673 15.625259479552737 16.922628011107665 17.06198732339439 16.983816435328144 15.979320094138105 16.598748146468868 17.71140172260414 18.33547644666304 17.092619732640443 14.417940562793754 15.098944576446703 17.336994666108897 17.630196800435066 18.287218991960582 18.84514455682784 18.408117426544862 16.696292615210655 15.47314947158781 15.591946339571841 16.243409113053858 17.500409207805177 18.878988530552572 19.559737442592454 19.39125059965975 17.760301188922522 15.524367533407979 14.65535144842938 16.27947194372234 18.399674964373382 17.25378666828057 15.442370325783134 14.298496947594069 14.622382526468359 16.042877692478022 16.196752128834063 18.126320151972237 21.60707691544346 23.103724208979152 22.774972493490374 21.303371139175166 21.515474583541412 21.292031004697417 20.060332719517827 19.143012456637628 18.202686364677696 17.380898192547026 17.815913211307606 18.233685773125305 18.47520831815681 17.673266464887686 16.33092195400845 17.092864837025676 19.0170940887308 18.73335638798724 18.25791439825922 17.355184836070038 17.00001529515365 16.076507667892088 16.537452748863426 16.64949713748849 16.733959513578515 15.721101327720316 14.072911051004795 13.847040194890354 14.836698056515042 15.588557479704335 14.44581757059722 14.75814562273991 16.32635359079333 17.861329041420383 17.538374571207733 16.444942596567078 15.817330398627723 15.567523551742445 17.613444540982826 17.504101256087427 16.754745376980296 17.952158562639674 18.790313307892657 19.596185269575095 19.703927406414703 18.89003286410819 17.791147228388834 16.953527043261637 17.399450405983597 18.158229128835334 17.25137441023864 16.50205720338584 17.427795868868916 18.953603529196783 18.05364625072157 16.569886812341224 16.35524603549185 16.38144302501603 17.585220524028028 18.172571950929257 18.02916836081175 17.26600059725321 15.810644323628049 15.589988044558854 15.765574240320653 16.982841511005 16.140605968040365 15.36525139707719 14.932930116866313 15.229004416668793 16.414437489834295 17.863987982037152 18.323356080868532 18.62581942990319 19.55631414603886 18.113055134296072 16.198177988998435 16.898841323057173 16.655518378704524 17.323963838785815 17.260195264591577 16.218083770824517 16.864525693131103 17.58611086768032 17.034225114870495 17.94821584988149 18.120176759666762 17.675221999822707 15.847884886875285 14.23035877281867 16.01050021253972 19.498086846558582 21.33750655971456 20.711398642481562 19.104561491411825 18.413605869835013 17.99853618641133 17.883388540074954 18.194201211341586 18.115020213302884 17.18541036300084 18.16552183524885 18.421205698642943 17.44159722650443 16.650734962778994 15.088646754806716 15.849729053120091 17.91424194965867 18.23032592977093 18.111369675408632 17.66285323405445 18.416161647121015 19.66305025865826 19.00883276064093 18.1951594171075 18.147964687230335 18.808217251585592 17.409459259405615 17.049514397974328 17.55689749530185 16.422041554406725 16.865507008454188 16.662954513440685 17.499175121701285 19.026728839253114 19.126375066519877 16.854881192539626 15.815085401812755 16.79426044733775 19.0527213074775 20.51403284393239 20.54905459583967 20.475942819754877 19.065453382343048 17.87375549152418 18.517823411371964 19.242431306800956 18.647983907352582 15.957610671033452 14.505968175535633 14.371311521808261 13.537807567309411 13.652317396154258 15.709486341143476 17.376357637520826 17.36446947624433 17.35353317928047 15.815988895816853 15.604670295203405 16.90010761859834 18.603947769305027 19.960213916646847 18.88676480269827 15.266476470412378 13.790489360755368 14.523896211911374 17.028417021073928 19.480896318888338 19.740185310001475 18.45900790783695 16.039378888947248 15.802204099193059 16.437399428161047 17.02123249659518 16.847752915325255 17.67187218792298 17.667655674931307 16.20248603398988 15.390726749552712 15.245829355936198 16.065450203033706 18.21501923066545 17.996422529698947 14.73081280281795 14.114542268594525 15.647506638749523 16.29544148231852 17.36183949940318 18.073334803605782 18.070441420922233 17.925868442175773 17.837704237034767 17.767358674611664 18.329074273354188 19.541009536333004 19.799574518432845 18.858450186359384 18.276860037803065 17.731481873678963 17.06959907236178 16.833066903161505 17.979612671258135 19.149798077494356 17.050657270171165 15.256827198607425 14.831505502903031 15.658556991311682 16.170746706120028 15.233596842986936 16.699993057959677 20.832679085628712 22.92696197104853 22.62892495697117 21.74664865708109 22.124273562556624 22.220543060591996 21.16167037948495 19.82126604325315 18.51853750148411 17.083028087089488 16.94450863204926 17.096261169613445 17.900322745646385 18.557120817458905 18.04830166706342 18.38809730818652 19.093308930778967 17.558936119047996 15.95474203431829 15.254980938552112 15.976698939441562 15.653355082866211 16.115820588297982 16.501322884580247 17.293010924407636 17.355258921490705 16.09069891945353 16.074683815654506 16.925745038248817 16.555372353754414 15.048708223709188 15.293606368074892 16.241306668700275 17.1251888912749 17.677835043451125 16.53999555207959 15.125324939184141 14.273345473668385 16.036221030494524 16.66049277072276 16.186488698408578 17.593132653695825 18.625791658248527 20.18209896662228 20.916207188049714 20.23879648094035 18.144369667235868 16.36311442888736 17.07651490978466 18.345559814372628 18.032737001138184 17.80152708066149 18.84102844849141 20.109098230440527 18.687668335111628 15.887805003728941 14.880276548070634 15.7082459152237 16.907463887808436 17.34075193273134 17.758995914898847 17.731316564057995 16.88220263924054 16.791778105212583 16.960371696748364 17.928542069657468 16.899869299576334 14.947650024737264 14.360384416790504 15.731747140723785 17.08845810520186 18.09136725370669 17.709740232640005 17.10115935544286 17.267325792467044 16.019860799562753 14.441061733127293 14.948883747195083 15.670217881852981 17.689506697393163 18.15076345041358 17.65239832960489 17.7877670263533 17.17647571397741 16.762438508716638 18.026111627971964 18.07969696639209 18.544157124721295 17.18718829946692 15.467993464853864 16.302707496902215 19.277883901400457 20.82491209596421 19.953531349611882 17.995165956758527 17.313431889438675 16.40742958164139 15.81384846259728 16.534246049881855 17.29125980483271 17.214269377701026 18.045681470891914 17.66731958713648 16.683668584736992 16.92151764588257 16.12269165999733 16.246075740403153 16.36222316075305 16.3033149034956 16.9005917327389 17.52846567525984 18.718319812437272 19.349181574677296 17.850923932783335 17.030122206179605 17.721575525208447 19.439736230682136 19.038765454661164 18.391657251399458 17.922229625355563 16.435354203748386 16.89095021944152 16.344457255012305 16.49667079234699 17.052702492429216 17.952859545000162 16.358808501065415 14.957953228503548 15.786992560579032 17.487260203731797 19.65900024611964 20.2040410460019 20.31273467169095 19.16465507781735 19.577990879985364 19.944059818455617 18.348771714354317 16.79402345857112 14.985622146131327 14.049105675570742 14.899009754111464 15.632336674260786 16.252482766431722 17.05804445480527 17.421918755813298 17.397528132273624 17.950955830124244 16.935677392282294 16.05489318124542 16.552468651338405 18.929035993397278 20.513117366461064 19.439108751730522 16.168124355049454 13.731266800246887 13.924068264214782 16.20654034878804 18.430658891399183 18.35865438712606 16.909094077315086 15.968014096645952 17.03405589552274 17.429976063753937 17.989688283115505 18.016284909998955 18.47180908712173 17.81207493777102 16.027406692769777 16.52053329792316 15.949592429745216 16.15867855096832 18.320929574846378 19.028808685121817 16.09520867459999 15.136218348143442 15.812255041411461 15.987808131115537 17.151884371104774 18.239648828561716 18.265873384762003 18.761627155706986 19.25540889135929 19.404141331918773 19.985717374235477 20.96212928689203 21.143848603478997 20.33863561954558 19.877889187157777 19.826639054995 19.42648727768207 19.06507151017818 19.433732749846456 19.238403383924798 17.33501899925827 16.44574069548938 16.82531346261448 17.065131891274785 16.022653288330805 15.043752555832311 16.804270450493366 20.526431019700578 22.21200167772416 21.68422566110721 21.450356623396416 21.488735688209832 21.58790221199608 20.490568329681533 18.909981750022073 18.471619229090972 18.01390287535939 18.11684527640336 18.108208822328336 18.870500637401772 19.455010751506556 19.756752453584305 19.286801349905673 17.482870830742534 15.217107263704273 14.336708023549004 14.864820195283658 16.253943848589838 16.676509235047675 17.0548738684483 17.190900744363656 17.80397880132212 18.03080521850218 17.408094311381195 17.30021749058487 17.799109948980117 16.357360818294488 15.087232003542766 15.767170903162784 17.10223765015106 17.885162245930513 18.495099946187825 17.586459689001394 15.938877345328724 14.898953260672823 16.63294625059942 17.84077248112994 18.0398681316759 19.759678959027106 20.475927753568875 21.151953469230698 21.241544064709093 20.395466955599915 17.62514757016029 16.247888708639664 17.477803589334357 18.62570675435656 18.76159240821434 19.56262311849327 20.290557313490886 20.07754526058531 18.162481033827664 15.652953319669903 14.88334885081955 15.446310257201906 16.297045948098635 16.94267017469371 17.806093017750438 17.570676578449707 16.757201825772448 16.900340685577508 17.32053173060736 17.747130933557937 16.59340187813478 14.875308169569786 14.51749065953227 15.787212883554323 16.723750061115826 17.16900355127338 16.584111752046873 16.919009120778973 17.77221898553007 17.284490563005146 16.043707504472764 16.41231247554391 17.154956027976112 18.772055909389366 19.413627950974206 19.32586495333871 18.647914512502673 17.191240807393417 16.73263470456279 17.55594996382242 17.878485780778103 18.910524131369705 18.476286098677853 16.947820066444116 16.578113376736265 18.43262521251895 19.747306356320912 18.46169960359389 16.27551703787636 15.745405439245005 15.13263733198785 14.669960270516016 15.63543130884419 16.590386177923392 17.257057663779392 17.214722713598054 15.710593530595409 15.321117411549611 16.65706462535632 17.173351527647846 16.708308899663436 15.813380689267362 15.831057636614682 16.39520227042611 16.81501317994036 17.677977758752423 18.483401347014507 16.83567656079485 16.098667323058006 17.33214787462146 19.33325325585854 19.702791038108263 18.89542975612746 17.587009937188498 16.26240371242752 16.382087637537346 15.732008214542613 16.6996169326966 17.29014841367223 18.41354690394479 17.73355323068023 16.401884895952787 16.27581014810653 16.080564700283503 17.490945424615155 18.245900571123673 18.951042336937565 18.8167795248485 20.508789620526397 21.09944349149542 18.69493463671866 17.505292724437158 16.33708183506304 15.09444493014598 16.533813779565147 18.406201079107422 18.52030882560783 16.847986373125433 16.01122568419078 16.052582484637306 16.429929789412324 16.098155118849466 15.861290744536143 16.302040695936153 19.03771942388742 19.879154889498725 18.7654116034078 16.897115404980976 14.74580618195571 14.489755222780094 16.339305735770743 17.43321740789515 17.536439698086564 16.233275114137058 16.516354857549793 17.863488785274885 17.858190732594686 17.88036290420329 18.07884595893149 17.767071599438513 16.59657500892596 16.9697087446953 18.755085898925543 19.025817462491858 18.944071675021704 19.91265600438411 19.76176885978749 16.76025979212689 15.844113708420904 15.637624429250897 14.7911725347836 15.870829238208389 17.129388848011054 17.20995272371475 18.492841918084817 18.945115209645206 18.331592887307 18.339457515516195 19.51556443154728 20.40352920105379 19.893296381691606 19.073208001164794 19.489610232566662 19.740407872897396 20.397610688831147 20.395186674983602 18.59987741692314 16.85662491860182 16.599598484529835 17.875955675226926 17.775238959531176 16.489951534439985 15.656322886958346 17.622783679058827 19.91534394326662 20.80216453209933 20.648859548772087 21.34699265079381 21.345878635221595 20.898220141771045 19.014999485003663 17.598412064266928 18.226009671708468 18.982324902572767 18.16420090568995 17.393486292488227 17.78093788116623 18.28288769557962 19.917559428826053 19.59954389183937 16.44556706859247 14.240594991395254 14.760002580109353 16.444062401888964 17.204256105077633 16.877425037612582 17.488629533586803 18.001950660856384 17.84950596221669 17.426947906762365 16.933306405033985 16.117635102058852 16.238487433926426 15.491950453798378 15.824812661524353 16.882185278779346 17.52000415837045 18.22587020453413 18.632223501003324 17.487514866329544 15.466955140559016 14.911313544853629 16.760359611774266 18.552427618747622 19.407076778507033 20.42804710931456 20.252613005720708 20.037974680880716 19.61257861100046 18.965304598027355 16.857809581960066 16.819506014658025 18.66914313103007 19.36072578474333 19.501550884718426 20.538076373573684 19.927944022769896 18.408042437605907 16.585579178270546 16.04245059349227 16.876834730025667 16.933585394147382 17.177996181119173 17.58397359931618 18.573455605088213 18.124090615919936 17.352290748846006 17.540753501103627 18.14890960627179 18.121753249373338 16.99097918474894 16.0101517065012 15.951179825142184 16.774897003263508 16.655492935683398 16.629686801693655 15.25570869881582 15.260806465821334 17.045901055877227 18.505047065564124 18.655418941346248 18.738795122426087 18.54938676360855 18.629329713184575 18.643624993418612 19.346920884767105 19.119448008836144 17.961757808394573 16.790658359566798 17.15581929940141 18.302919747484022 18.52060812712987 17.21270179385444 15.238089852511784 15.184137505629959 17.849260519244197 19.09946250189688 17.928518621219986 16.101155371117965 15.551266219834543 15.529686160991963 15.927095503554051 17.061780789861178 17.22519836954587 18.16086495388261 17.822990014332834 16.121784022725706 15.786986742523395 16.444454184797642 17.667409579782166 16.942050375488527 16.032615456922873 16.221787641824758 16.373862136724302 17.08229980412161 17.781011399634174 18.35793073447656 17.087137890515088 16.96633668471814 18.454988188734372 19.191652027329564 19.50304648059768 19.489014016807488 18.351802103218446 17.034730948671168 16.454248364454124 15.294834409399918 16.42137111504463 17.379438293461995 17.66557501998149 17.574451649591385 17.43930945894664 17.527726012677533 16.689637079404143 17.23938621568621 17.226320017564046 17.61375840360327 17.902297155435782 20.05774341210961 21.415708276552614 19.942484082443595 19.33940171707817 18.048896042920973 16.179385654280132 17.156311185873612 18.968925630208016 18.57758580824349 16.000212484802603 15.311866626981123 15.698508496151566 16.145306248586426 16.43101179763346 16.0283019166119 16.48269083697757 19.034748859429406 19.073579688318247 18.53240583304268 17.676904559564054 16.364981256571262 15.75639045905034 17.05871004901993 18.091094543514256 18.924682868373594 17.327552581370135 16.62442924440934 16.745851378446044 16.13346538376958 16.33756414114618 17.332219588543317 16.34585630981322 15.618804497220925 16.856693983875576 19.22621982140778 20.283409307234006 19.984620976223137 19.86276113533708 18.957870301358206 16.140259336667874 15.550913329567324 15.493458017264656 14.355874637674546 15.610731653160224 16.988237087445775 16.802235838180884 17.916331446220205 18.363309106992883 17.294884248405253 16.450991227779912 17.678827571770867 18.8277917376542 18.313814541862435 16.950198643197112 17.698305141404926 19.330458525478004 20.99978502108676 21.662398615242754 19.850842347161684 18.285652028615647 17.70183050612325 18.13235600252404 16.884073570626285 16.20767070587669 16.374676590619288 18.208583993637934 19.78282929448687 20.456148530868248 20.611306598650028 20.2988425138434 19.248167647159615 18.529041809475764 16.76770619930228 15.745286006299843 17.402100074717136 19.033001983093353 17.575068771151994 17.407898113874488 17.93675037600467 18.235171712526984 19.17541714006671 18.873205129128497 16.34080148586581 14.326488240509546 15.15669756344268 16.4661221573605 17.104588780117837 16.850320901364466 16.957954045940255 16.668029732051448 16.43653692102417 16.935455168764694 16.61586179762424 14.644980287813828 14.233640037014222 14.476695727983403 15.564312865021181 16.677037794235027 16.235913133669968 16.245887672334447 16.77898219426631 16.60990047306899 15.362354744952082 15.590100368292752 17.198647022388595 19.284478835075124 19.581612257532708 19.469765130876418 18.71558866920126 18.533936627369346 17.93189571967493 17.753240964860044 17.00133600383823 17.437838174778648 18.515991476628383 18.44544617532845 18.469286693395365 19.044850259155613 17.062925842533847 15.615859745593749 15.809688310093456 17.15761594806122 17.483401357605402 16.487514929816225 16.5482824048332 17.200319315698668 18.256995448163803 17.70921646204281 16.57419678211713 16.692173187123927 17.23218935862465 17.120024758167812 16.221827002611285 15.796030009583138 17.39311014070692 18.273975407623986 17.359806922072366 16.484688799540855 14.188468783371873 13.37484848908042 14.749222026299165 16.992815732776737 18.380906444365166 18.141784282138346 17.97812772156477 18.305506750830276 18.873483921085754 20.518809369069004 20.531192704559224 19.386203560745454 18.440288124438705 18.448377940078224 19.264602356613498 19.310354260872966 17.799355720220387 14.997767684961373 13.846655295640309 16.006049898925017 17.495983583982582 17.66238331824871 17.371983024207214 16.694214179612395 16.74245321535545 17.51632157628987 17.781276529598557 17.040963843249255 17.78859425347866 17.73262796691219 17.46566957837379 17.42553490128275 16.662333312073283 16.9614702332729 16.2401417291064 16.235853275328463 16.01823314280667 15.691169102281393 16.324272399807224 17.965155937289214 18.593315845016814 17.87193284554857 17.7850933855351 18.728890230882655 18.25701584350807 17.33804790407444 17.548267005071935 16.7316469452979 16.485373270671367 16.879764814690724 15.991210671355661 16.451111678941864 17.211922541360366 17.2807341205896 17.619579143561474 17.689959945236485 17.104800674940357 16.29204248240339 16.718412365990243 16.823234134713882 17.56356480098289 18.44183019366193 20.019583332040206 20.61063599181759 19.538888318139755 19.426071517511545 17.98301114305316 16.681808747044546 17.374031599339453 18.704634327111226 18.31489461031419 16.476538467339324 16.359073554992033 16.411222614098318 16.13276353853959 16.803377928317417 15.722217266539182 15.261266734475461 16.86999142337761 16.555439512206426 17.237484825522305 17.490106978286118 16.780438626901663 16.363226385245593 17.474297405923366 18.732069202638627 20.31321151861724 19.159806619136983 16.904337578250715 15.583223187930205 13.903633364383994 14.532879467725497 16.59168821