# vtk DataFile Version 2.0
Ocean Simulation Step
ASCII
DATASET STRUCTURED_POINTS
DIMENSIONS 200 200 1
ORIGIN 0 0 0
SPACING 1 1 1
POINT_DATA 40000
SCALARS Temperature float 1
LOOKUP_TABLE default
13.873619640200722 13.052807368773081 14.240011599760376 15.678497139164962 15.3584825056251 15.193347354082903 14.450799735599494 15.842988570145321 18.125945895291828 16.953621316639705 15.382238241687045 15.060570402798238 16.579830906546007 18.019463840413994 18.235902113333584 19.230936601840966 18.77474278475467 18.800868332241567 20.025745389296095 20.860813790234918 19.168676153550077 16.172440202138386 13.739076970537122 13.25052110501008 13.87436098026883 14.366957000541872 14.73236126482973 14.72671340038173 17.360412919708097 19.81122612207401 19.512485094255435 18.285934181475575 19.154416650084713 20.40304541100506 20.229545796676287 18.302729106390622 17.23187102258979 19.203674596163932 18.729863495344496 19.531658387459842 19.870789900068175 20.482270500213435 19.963697082626478 18.912920662938422 20.01529875697031 20.578573409438874 18.28949489369749 16.27176565639992 16.179924009479844 15.87709241964149 17.103850822343357 17.83313846393301 18.320677206476308 19.53674427428337 20.19084771370804 20.733782687031653 18.31815020513093 15.608050820112728 14.91833193739422 14.055320378045508 15.618548228415836 19.704217970184505 21.208297327240402 20.738004508616637 18.952979754567036 18.05457924428417 19.17018736239467 17.54077100841558 15.45971783355151 14.47673725588597 15.75245668626798 18.84189980352813 20.307776885244113 20.18893002773763 19.178255781096887 18.3091298635806 18.61286442825526 18.483116772424033 17.702393051135566 18.17033849449052 16.863978972996435 15.407158969602463 15.800189619019966 17.23418632403059 16.87919771934235 14.11277516255651 13.371602400964498 15.869508263530522 16.557144732907805 16.89398247714843 17.324964640346266 15.763632631276119 13.809941189870827 13.095237732274017 14.015354957857738 13.564525481836133 13.305939449761533 13.195744657912014 15.151259438391849 15.920984405053227 16.553032290726563 18.10594626025636 17.188866091114978 15.702936615427667 13.826522013049836 14.014688910003931 16.31561906264392 18.264051395453283 18.46108612459253 19.152818269247835 18.97742901719428 16.61985474750001 17.47164427148734 16.97630331663337 15.523136985765033 16.871100541033783 15.568855411554965 15.160498758940275 15.67209151245274 15.809607720325937 15.488901935213226 14.111887275202763 14.467336920050101 16.73964471848272 18.448860738678825 17.223080394458144 16.935043898535444 16.21469305632631 17.21331320524636 18.59838851780323 18.326674664756258 17.01631139802838 16.607163281292642 18.07351006698486 20.609325085914417 20.371275028481495 19.31181401521575 18.35586496262727 16.80919306888883 15.443304670984551 14.9895944867197 16.43769176104709 18.977279183276345 19.40892891029888 17.6860751776613 16.32391421406297 18.624049325037706 19.65030129192452 19.046859641190323 18.390885175995262 20.031434368647968 20.713977328733723 20.561821309091645 17.43800982896717 16.114215875701063 16.95150297710486 17.90729425170012 17.480389208349496 16.447597860930674 15.632317547573308 15.942837347633839 16.498706516081576 16.522191140058723 18.59942915127553 19.807311368085248 18.59836771545488 16.498017886021305 15.28046659516078 16.435347667457883 17.418020608736715 19.67785620486373 19.74007357223255 19.19681252973273 19.697716530888236 20.345341337140095 18.980032202360036 18.48948934144131 17.576717941717554 17.176917255430048 19.30809766984925 20.21259962102334 20.639229185064465 17.680848114940947 15.878215612009086 15.787320797282437 17.388590850629615 17.978661030661033 18.86440112006773 17.85613220877798 16.662471082574555 14.916768819412264 14.451179592014036 16.216745359447867 16.469894390044523 17.051248906344295 16.563368890289148 17.726443868356956 18.29577355547509 18.555495228994033 16.935478481921805 14.560303674685848 13.757699352268341 15.864870769456774 17.889323713016463 17.809585602924464 17.70562788219039 16.189200865326608 17.000967646747153 18.47352052603966 16.760145638116413 15.545794579106433 15.593075372967457 16.713070613663024 16.89311268794696 16.687562393394522 19.070737723752853 19.244354644360786 18.900206986090627 19.82629917832695 21.743643453251725 20.66160799894219 16.929937132089307 14.25176434958529 13.281631129987046 13.915985654245464 15.415108041819185 15.359556304591857 14.607176736577648 15.063984904421513 16.334035720566586 17.177976616512698 17.615758160285264 20.043483663242775 22.21096889333987 22.18630494351618 20.643502660349828 18.333108080954066 19.962207909533245 20.17076508624992 20.681215138315487 20.039499369312722 20.457037089588788 21.313947915503597 20.99246959499181 20.592292975252285 19.424317448255817 16.606968484259497 15.755244981662146 16.927393856813747 17.194443923623805 18.23070657912689 19.658614716740775 20.372270723827754 20.86903281295191 19.256018752490817 19.079462647181476 17.852380352165827 16.351279265307006 15.549435804434383 15.033440063066477 16.575700286289983 19.467725190595377 19.967096250408513 18.169881063090124 16.408252480078072 16.09181559430738 17.14719747576236 15.75728305827721 14.843439980124668 14.679145507380182 16.629631807631704 20.080945633800194 20.532957178925734 20.736817862742072 20.913857659203455 20.961085135710874 21.37040518408248 20.847033378868662 20.478022768588275 20.279751350020312 19.230584152907817 17.42138885668309 17.012256182939478 16.589923460118825 15.405194968630475 13.543840281369404 13.805440163008004 15.598874847432148 15.945301199621518 16.86496298214195 17.22496341964843 16.973404226690928 15.150669668891888 14.589134889034147 16.581513344978887 16.61490227315041 16.097840526249254 14.211700348765198 14.854668244363705 14.308548936135141 15.501861571938747 17.652843697729928 16.900496088883987 15.735648486274105 14.462318447813306 15.010770504791967 17.105915038055965 20.188718743454437 20.263502535322175 19.90498119574389 20.364448642201808 18.794518505196947 18.45909788622758 16.465260075422243 14.541679104287711 16.081747462435306 15.77212101640215 15.651747989398253 16.010106431336446 16.58659882700113 15.928580592985629 13.855987599884106 12.54056438782966 14.57799022912732 18.586229987623963 19.491712793783808 18.761859267593668 16.278368195527428 15.956456662499683 17.219405538296957 16.40302487610876 15.624731624361756 15.641050514732902 16.221157883162878 18.73648625358615 19.18255852540718 18.909902184131415 16.514809018488776 14.176020248243042 13.590925375367348 15.612549747383795 18.187317583445676 20.340675828356016 19.65011831339717 17.47634506313417 17.46628784844781 20.08162060678156 19.88358957412505 18.28633505123776 17.96151917679007 19.35588255017301 19.676721435776894 19.395526095574052 16.248890651709257 15.379980292751926 16.401978413074776 18.199792477934068 19.071231231974735 18.29248428174569 18.169329756870795 18.257223231563817 17.217135390487616 16.447658826954132 17.343210309859607 18.706551013261972 18.498296464042628 16.4053175141108 14.523026757830005 15.395183968665794 17.38950700969496 19.938826022878743 18.991457700930116 18.05366671434546 18.690320018839447 18.19502129791393 16.33956542290006 17.20307445770959 18.316209478650027 18.664439146501095 19.23028603320062 19.328303009489083 19.878204275599515 19.048598088897283 17.79468877274952 16.947961634461084 16.318450310468226 14.899216477174198 15.707886371377127 16.058066414163786 16.225563041065868 15.623870225115493 15.489711231672278 17.008148598439135 16.722293761541767 17.111106987989853 16.749417743599633 16.60192257467477 16.127745485023915 17.41832724399454 16.78513726030863 16.860914610533587 15.763879795767938 16.97979595724031 18.40912422531744 18.36521992222113 17.99174098227855 15.866139688076823 17.2377485774848 19.12501314949816 17.90035313776563 16.85858297066267 17.131768001323156 17.200609102664835 15.672363323583095 14.785629735615931 16.33422135471322 16.79507206424918 17.742437304161264 19.21945465108295 20.87011571162089 20.486019344427756 17.583279338004395 14.859470968753694 13.56032305771958 14.889341001127029 16.749556629879475 16.087477743304536 15.125596001567645 13.896104420037117 14.025426621519317 15.461514909007299 16.36717413015488 18.773771653172055 22.01817938656493 23.192019789057326 22.425650401999416 19.914268814535866 20.755187238656895 21.47316384093048 21.067514624354647 19.89893935090207 18.854454990622383 19.168371309915226 19.613897108282337 19.307475452548157 18.578112999665674 16.424014547961114 15.221664943757752 16.73235733461734 17.845334477156236 17.690876903408746 18.650779111401217 19.165872569873795 19.627109791629994 17.969618994878577 17.83482177706708 17.327995434578458 16.401253665086507 15.212411287613765 14.210548060998295 14.566680341019152 15.94942824389696 16.875197390133792 15.470774205800286 15.481405922031797 17.02113194800276 18.421129425539018 16.89827876141726 16.226044322032845 15.771772566761914 16.13332935375696 19.137508120020172 18.726714524097343 18.105189797124353 19.15081712053223 20.273618633366443 21.29797892309816 21.21849475277344 20.63480996090149 19.773657353228916 19.131689773697072 18.270722179856417 18.306467384474374 16.649762552016977 15.018435186567578 14.700236287733759 16.249320409757487 16.953426719188244 17.119228633293506 17.927087702179826 17.38555155699312 18.073708560159726 17.420164752726855 16.79639430155486 17.700272714096197 16.71028984554628 16.37444822450485 14.880556431469994 15.463952529164603 14.200957194810679 14.695204099226759 15.71445840363643 15.809393203886062 16.633268784278673 17.102303239404783 18.03038862817678 19.188039621932692 21.28465834384812 20.12983670157089 18.466181807963817 19.732290124210124 19.402823550576183 19.132754461919973 17.291901683573702 14.766437704257454 15.86201564233607 17.716762815191156 17.634428207738146 17.965663609657167 18.177071120528947 17.09987251309415 15.328624723457176 12.949282658513237 14.317972098163333 18.30238767692664 20.50121777980082 19.690579891570692 17.87773439319683 17.202577371865548 17.409520407145973 16.880328665134574 16.50181002057984 16.415314054813344 15.428479006982018 16.91996193292159 17.46023989624477 17.304264326814778 15.265500618965756 13.235867027239577 14.132550006588856 17.9400443870857 19.589016064080976 19.98231756651382 18.468756782711957 17.789063979613584 19.382580390237326 20.46494228180256 19.37187780246054 18.481475332321267 18.419032295853626 17.31097924060988 17.18187836198344 17.48289985728414 15.661699937904979 15.97497621273953 15.958804931836216 17.40207001927974 19.785246313230946 19.83011614758142 18.48957186236137 18.328761825773075 18.510569471474582 19.172311066283406 19.36842263836748 19.618370017277453 19.398403886975707 18.036957590516735 15.757612206306472 16.806027451350985 18.998968532748055 20.01352940135513 17.398992456856625 15.541151845021947 15.468921795794317 13.86440052964979 12.729011920621822 14.494038794060806 16.446883167692448 16.885096729519084 16.722291816140515 15.590730067633665 16.127046102959554 17.538044773581046 18.271058174049834 18.666881504113103 17.84080920208279 14.755709020732734 15.043555903479318 16.201580701326858 17.96257811948587 18.58714397589649 18.10230059984676 17.977440847014503 16.06773306546114 15.754883902043089 15.907703034711176 15.746277327207379 15.30863855265644 16.930359999933938 17.071573790455748 17.117501258714437 15.899586380309014 16.658778072222148 17.861224364236236 18.511356139909857 17.06798772101726 13.94617834268083 14.875711832093078 17.545960096419268 17.687603946416687 18.501991428170648 19.158309583337573 18.67318012419492 16.619796262566517 15.18011464458483 15.28639693040754 15.951189265267782 17.27402429609222 18.82925037862926 19.5981020421631 19.55246583986773 17.851219832671642 15.320500251886784 14.319723675796467 16.195424982447065 18.78569783297912 17.434787312649018 15.438402933040875 14.155254864882464 14.45987965359102 16.206768478697015 16.102767868700994 18.06000292226887 21.829188512533936 23.26680605075885 22.933280305117545 21.213733576527584 21.570199129288785 21.287271695431503 19.831488902549843 19.017477666250375 18.106504440132486 17.134402983901033 17.75352623486005 18.26657571040676 18.62506428859797 17.752872458311877 16.065226938428157 16.88877065186314 19.320009891765782 18.92498988571892 18.480811794285565 17.339702224166505 16.926311287881248 15.814040752791673 16.508950438519324 16.60611905221738 16.81912631447399 15.672166827317856 13.74545439521267 13.46804121352848 14.554135906504658 15.573660053214333 14.156069669089337 14.528753981707382 16.281409131572854 18.075732063656115 17.646132845317616 16.41035604226138 15.870870870373142 15.414629933449426 17.850458179587008 17.533193533713423 16.501603961469478 17.93126102842704 18.68950382389678 19.463463718488118 19.547214763451283 18.634239716045165 17.566990218515784 16.71258268014152 17.330345574004408 18.294959130262693 17.21751449296508 16.355002760315003 17.476347802017823 19.314545514268758 18.133081902379395 16.469632544706297 16.362668591148932 16.234764699356724 17.665480558167246 18.38907040251336 18.221354576904254 17.25602151013791 15.511554070884838 15.385249924353722 15.625979371768569 17.22861741502057 16.21035135048439 15.437974025444419 14.859860924950945 15.04139552410709 16.30379997285065 18.004424368706488 18.421924136808453 18.6538955812698 19.861028237796628 18.18696539717498 15.908229079269482 16.958854485574268 16.42941718083623 17.204697107418475 17.282748306414238 16.04468218229157 16.854718836729965 17.7601825437619 16.865668559449347 18.01405002404832 18.181230744210907 17.775247368930874 15.762918098176893 13.91037066755233 15.977558649397274 19.769974267506306 21.677369555919142 20.94947965509263 19.220951482788802 18.58899667854847 18.16283677790249 18.121160824164523 18.52743561605267 18.42210535114174 17.131646568373768 18.340716586705728 18.67887468406772 17.491956936591677 16.821676146235685 14.921625547771146 15.82960442044838 18.243958071355923 18.33471446024133 18.098007785121183 17.480570089308173 18.379614182319372 19.90030774531095 19.004171010149946 18.132334057736 18.086782891366557 18.989437608365947 17.149026851064427 16.81784869339807 17.695409081485472 16.324856101515117 17.008947688354134 16.64578430349091 17.52768686409696 19.29123740646326 19.405865616547985 16.640320901113046 15.507885685069047 16.62570781470963 19.27555901621964 20.817024551520678 20.648199526823152 20.707649420605865 19.140504386457653 17.71493899295419 18.51845034570943 19.47995013769545 18.92056186265428 15.799377918615185 14.338077442298948 14.308579164628974 13.222441341020884 13.293736492902287 15.717656545276581 17.609443668662216 17.38064265815541 17.490315808498618 15.579759091974791 15.369544577878832 16.851708962462403 18.624277480719574 20.238969338283976 19.17176302429304 15.011869137438442 13.502307655487233 14.281659046117452 17.032614428006493 19.859181458532408 20.144053326377545 18.7680904689507 15.832485156210485 15.604926842606464 16.398150859331274 17.11640291004779 16.7621560770648 17.73474553639115 17.75649271122328 16.070142341352796 15.183431204589429 14.989740621564268 15.785933364856746 18.41420839818497 18.267997483734998 14.40775285991498 13.750747326582037 15.56442433069724 16.159128380112417 17.319614524181034 18.02970819309231 18.016285020372496 17.955647284872185 17.93216073191534 17.760285910608445 18.302666475437817 19.68588503998727 19.868607469311943 18.613734822570905 18.01546952974117 17.538893347353866 16.96679376240194 16.71550161144746 17.98926439832135 19.50248789212446 16.96063375492926 15.00926568079345 14.584593129739819 15.656270222000563 16.346873498947872 14.957557612817542 16.317156927256818 20.968889864056568 23.175497838417495 22.745689468199217 21.690221683918807 22.26279257697629 22.461819063838206 21.345985944712513 19.969278504220544 18.574160871780762 16.862277720560826 16.740384380727246 16.83681126393139 17.755027031351762 18.66495132157672 17.965564627908304 18.379103797908847 19.452714089313602 17.669941712830216 15.813866462289871 14.973608176248677 15.978425509226591 15.452377884833366 16.005655854588117 16.38905365342738 17.3555699263518 17.568339086022092 16.037441541560366 16.09077510941505 17.143934047120318 16.77066612854799 14.952372737235342 15.258342731561747 16.16166616413092 16.99931641096941 17.77012512682963 16.47271527348989 14.943029529197458 13.866336783767936 15.943785885188644 16.586661785607383 15.802196391244117 17.40640363851563 18.383967541590764 20.220894638570325 21.119798626778792 20.473986872893782 18.215946208316367 16.10531072691014 16.965665494633175 18.485699701913493 18.03623053135183 17.64034539654065 18.79232130232008 20.441804614015652 18.913901904690494 15.690108801485204 14.587723842579639 15.660115790755285 16.9816745683001 17.291675141528394 17.755743472378054 17.869698436540077 16.936003998937018 16.883942318215418 16.955067064932663 18.204897673308825 17.083065776632786 14.793523526001072 14.122221465118308 15.793985499847503 17.213233889867446 18.316724617949006 17.778345178111152 16.89355367511461 17.130673917692256 15.750937089038318 13.970824453729415 14.64212032010823 15.332419464518185 17.781142674213505 18.193942684287688 17.560494514712754 17.868331600162872 17.120888592890346 16.584972478024554 18.200461735616155 18.04012815532127 18.753840484885714 17.216772213042614 15.212276733892534 16.10549696305109 19.459361742541457 21.069362783779226 20.108348353036586 17.928110341317907 17.382645686195158 16.352790483892047 15.60926328828086 16.45786876595439 17.357755850126008 17.116705509560784 18.218559100300542 17.83930922978712 16.621581926581253 17.068787075925016 16.026535052905714 16.24705239977222 16.283177191635197 16.107217331757635 16.84045055602083 17.540112391587304 18.896918278048016 19.58306500458766 17.776751139018327 16.889857665700816 17.626764315615194 19.698831743045837 19.143849048936136 18.452258536117878 18.09221735448273 16.265992409926817 17.040880131338042 16.314343329944162 16.34918538932275 16.798449779992097 18.02964465446335 16.176046432257596 14.558567340385489 15.592409177254705 17.42859201733879 19.92751026358396 20.376526032837024 20.531036815581807 19.044538892562862 19.649626812427353 20.144794092767295 18.22413197412853 16.5824045880719 14.710373403701258 13.770398397249737 14.820882018833764 15.579560100554584 16.260288379367882 17.24344035275965 17.58336743189219 17.45460469680999 18.29108960984118 17.115625200147182 16.000096620711755 16.375717073552583 19.008656271707334 20.84207048358507 19.74092604808114 16.116471086107385 13.415879786554749 13.65442539853015 16.12188770770362 18.632630511457165 18.417125903721576 16.78429315312738 15.728063334263096 17.1431576621257 17.448920863419797 18.13169413715941 18.0618353683626 18.70110159547142 18.029268704491404 15.823330626059072 16.53636478347319 15.669017603712671 15.735779468393655 18.29921471868658 19.382800082824758 15.980065630169918 15.026620345993217 15.90024182618897 15.98744201398455 17.25930391029785 18.457450468649245 18.337432390092204 18.84946067298719 19.430647337026414 19.60573010658029 20.24579136866625 21.279653980272858 21.404274009214824 20.474478121855476 20.063874848194626 20.078812867751495 19.611858039591738 19.06812055195174 19.517299165032977 19.46158710201386 17.31932251178571 16.44280070469194 16.923989484157808 17.24220743697915 15.95328731445577 14.74388394726171 16.569345421656767 20.740692604180403 22.47135664174828 21.657077769362232 21.405185244989955 21.415008702731235 21.680534578288974 20.603346901745493 18.830758575870767 18.494928185656164 17.948865466689014 18.242079539833696 18.205461322708008 19.084025167858357 19.667200032426667 19.953087302340297 19.445629654136184 17.46697000370226 14.978201617040778 14.04028756413824 14.607593069583048 16.2815465233516 16.769291756508107 17.12707636416043 17.11875542199567 17.86910191290631 18.217910898267945 17.516442442680653 17.451176669263937 18.194674945258217 16.39140490014011 14.839012907016611 15.643691070213345 17.199135752038945 17.922482145249294 18.67664460150474 17.751410256238096 16.022840373448922 14.715516049092052 16.736876218173336 17.983591062430722 17.93622567675257 19.993711278605993 20.66282864510613 21.38388914396976 21.482015963390765 20.709569688107106 17.52357504497126 15.959565492570757 17.415527221631436 18.669274585397062 18.68715091891806 19.626874914477433 20.525640090010423 20.357112965121516 18.315842041756596 15.451892390359871 14.586179226661264 15.265149767208634 16.17794883486239 16.82612150962044 17.837992934067078 17.551505693748943 16.595307843994455 16.823549737103356 17.263725701168447 17.824475925946185 16.573518872922033 14.645794924333172 14.267205407971197 15.736255566867873 16.740534650432696 17.218058294351888 16.511164392203455 17.020367998559284 18.010183965306013 17.356827452488854 15.803464233313612 16.30954414928872 17.083812711951662 18.970043999408297 19.66589445025774 19.530279072954627 18.755088666674514 17.027295689440212 16.62880121999796 17.61266079124282 17.736905170928093 19.103652784648723 18.81270666453388 17.15736460839903 16.53622810807408 18.430883431978543 19.929415856558357 18.45143948940732 15.987426843005457 15.647244597717695 14.986670534760322 14.333231213677678 15.429226630980084 16.49711676977668 17.239921893447747 17.215293068136024 15.3923673472161 15.002543287381402 16.73815986286731 17.305282310042976 16.76779748908688 15.66348492774385 15.71009129741147 16.378093365510416 16.678489382375872 17.56339628985256 18.64524147477155 16.645342981124227 15.768797999541553 17.11842794064032 19.478215995950737 19.875946748393776 18.912401634151667 17.472130976780882 16.041504597958916 16.410730490172188 15.569975796587519 16.800215270974807 17.242309515992865 18.692546943003236 17.944286821900047 16.334810259915844 16.226675343417163 15.743945121416967 17.372517444668233 18.157760126188887 19.034085662164618 18.701089443146476 20.732487053387327 21.44122080139527 18.481490935818297 17.405573167274596 16.329572434285314 14.85408235900225 16.590409803594294 18.75842334203566 18.878347735329783 16.823834516384107 15.869198981947669 15.936137442608057 16.374373839770268 15.97092297864588 15.784291443429547 16.046252507571026 19.209804461230842 20.04872764765663 18.76433398147905 16.92658227429108 14.528648738469066 14.247763307412306 16.37283570979933 17.360529823397783 17.462957645174445 15.929198056262676 16.47240881412468 18.166222983907755 18.043003533070703 17.982291168932125 18.18200917551303 17.91177603481936 16.518976477857905 17.04492878197176 19.053531705859037 19.22239472303704 19.00941482297886 20.154137108606427 20.152560994419233 16.682948814648626 15.88661916236296 15.701092130131936 14.550502373497354 15.765392287789194 17.14786146148838 17.025476331882263 18.59245282772217 19.055183000945203 18.26066852339773 18.25378564108706 19.563650382729378 20.595450454484975 20.01951745269864 19.074857200476973 19.638334448811474 19.742565249648937 20.510554552190264 20.520616773296368 18.413023053681343 16.55824772426831 16.373061405043206 18.069749157679496 18.025806843231607 16.52623863912059 15.397835019638926 17.633340683923922 19.986810242157706 20.785485965809936 20.45811610818581 21.499072380977434 21.558382115587854 21.176562552383892 19.037308187678263 17.47091427644018 18.265249007984426 19.206848417848345 18.222342338410332 17.21846391806502 17.66726734456606 18.06005873734457 20.175468523369613 19.950941041424418 16.266673690255786 13.91552949161363 14.669735508240601 16.681649854439783 17.390368990964493 16.791605311557202 17.576071914595126 18.26490045296378 18.005595095908355 17.399482270081577 16.94023343178716 16.05515033570284 16.367637783223532 15.404263535963063 15.860540176808538 17.04096708096503 17.661933880013756 18.462116726762556 18.945216709824944 17.625733144663908 15.29969891001839 14.639172208895783 16.74541123911401 18.62231250582873 19.494409439540316 20.67871199004679 20.36583917762512 20.07880389743806 19.626874852608776 19.086171677948535 16.588495949148854 16.652430723574415 18.908723636826338 19.56050526782027 19.565219995329603 20.90098122146253 20.228794704566383 18.538984646176242 16.385710346032674 15.839347985254271 17.088953940583895 17.0947925447809 17.303865548983264 17.617197519364186 18.79761328422124 18.233050584118974 17.398136921776945 17.6395831411611 18.36635893290956 18.345644878257865 17.086124161750934 16.07589204074302 15.869433603524488 16.81913646268583 16.56840642235302 16.729237881305313 15.115550876992513 15.119883673331348 17.21755086161726 18.870693402008726 18.909728561981424 19.02800798601819 18.703625505504196 18.65207931746426 18.481395028605732 19.31632750002613 19.1068207447571 17.915863909054966 16.50945115579531 16.927062988986304 18.34665957649392 18.537390291234598 17.09425338523849 14.933814706807507 14.93956215230561 18.09910651209593 19.39865696733449 17.968241834491607 15.85939317099546 15.397055984354331 15.432518290179091 15.82860024373956 17.228579099674764 17.22370758238738 18.39835367972748 18.018018069777067 15.90835757580897 15.597348256357039 16.340850482622642 17.95526496301372 17.04031888962144 15.922530290898711 16.288203683343266 16.376840326710965 17.18925444225241 17.769224373051287 18.495415924607123 16.936768443942707 16.836151726546344 18.611871045269336 19.281450085644327 19.703776473352498 19.816478198927708 18.58942557462349 17.08981148555348 16.482589927539287 14.985407091303639 16.423681091298516 17.472344308737036 17.660144431269106 17.55352593730166 17.483802056111955 17.776642865409013 16.65768358232854 17.32917543896741 17.133471309384312 17.50959752681542 17.591098441020755 20.07385819303208 21.764765859065506 20.001942653054645 19.552907836311306 18.271149921318894 15.970844810781005 17.110033939167504 19.221772664301294 18.79040977885485 15.697372821334513 15.06128311930549 15.600542789930975 16.143314853887617 16.492462937048415 15.99944579080605 16.418508383171986 19.462744672504712 19.27067593209998 18.652571118907847 17.80067301306969 16.42300048042596 15.644325671820724 17.112564897602965 18.10210309466218 19.15484674776328 17.1708000597685 16.54258439979409 16.818090554430487 16.11323467655664 16.28895295381428 17.520877098405467 16.23039286752922 15.396877385366537 16.68243715950156 19.30821644988338 20.46222572357301 19.99629677662749 19.919345567743374 19.092328626200047 15.824100409625075 15.390455877760203 15.524362655483246 14.028975545780746 15.522583111867709 17.093322688240715 16.727287867303033 18.100790201111458 18.5318671262697 17.214995963509782 16.132260698959374 17.600352117119748 18.856650033841184 18.24167969140618 16.61601918982965 17.590104177705346 19.455378604047237 21.28074597804692 22.00487082415156 19.78573116659795 18.1277821363439 17.551073127978142 18.326895599060023 16.84442694395482 16.134810998486746 16.198138725318163 18.235330663295326 19.937341505929673 20.592487900020345 20.741757367485487 20.44628933264757 19.270028694003226 18.642770235544596 16.65025213954462 15.406821210201214 17.367969339472776 19.320914227547625 17.37369192344958 17.233318625308684 17.765848513358172 17.97651461489894 19.19510087358894 19.083771122922094 16.28069300670954 14.028186365216365 15.163041431298339 16.667415193415284 17.32820815868916 16.823224844101652 17.008116265341066 16.65730790646043 16.34269817006878 17.052940942204668 16.769137481967658 14.356989220839779 13.937627635615502 14.241163636789615 15.554487145664531 16.807503649265545 16.057659559359198 16.07777099800011 16.792582861763197 16.729159428375425 15.224863097020517 15.476892680041399 17.10296917185346 19.443840368269736 19.586282853768225 19.46996988722511 18.57780213424205 18.51584921199287 17.765874881688465 17.673304672539967 16.78568853524886 17.37177485743836 18.58862044566929 18.344507821486058 18.389618912446657 19.295587728003806 16.89617817333757 15.358643450934185 15.710613281625891 17.35181541552771 17.757643079474313 16.481806213556474 16.560791599960577 17.148644718767645 18.467626368912317 17.770395246717648 16.403113941403674 16.596968621291385 17.209366343186538 17.035258920521635 16.017595131803034 15.522636016133008 17.461588401418457 18.439783911373222 17.268054069600932 16.511552120956075 13.94327272012345 13.07731279560669 14.517011738442227 16.978206831567118 18.579618484413352 18.222738543274236 17.92937653701739 18.134022346018956 18.606769021668217 20.671589691760392 20.73287731340066 19.52373497826136 18.41038768231871 18.432796243894558 19.492077015720962 19.52037957730954 17.830868438104243 14.697992032608797 13.483915586170548 16.120568940718993 17.55815801123861 17.56457414088459 17.359751967031297 16.62614542754814 16.708222678658586 17.700987747387707 17.993282646513816 16.852059539608494 17.781696611595752 17.78728697388968 17.61309904057293 17.67309528899062 16.63486989532546 17.15452329857163 16.193683602967127 16.33696818238226 16.135052518132195 15.689165785182634 16.320396463269102 18.150427191255893 18.708465589118532 17.81639332252262 17.70374174540625 18.933590867584464 18.312584188134085 17.142655306999604 17.60107845920599 16.656694601494394 16.4727464886542 16.980736817080036 15.712924389424078 16.261141594872118 17.203014134690065 17.065338023756464 17.47457799606602 17.72837685055508 17.190387090296227 16.197544288253518 16.77462350625338 16.822058527672496 17.678607029861684 18.451525298282046 20.17074836885151 20.832749996882125 19.49005971141788 19.675533344074868 18.09284633734857 16.545558857858698 17.359305498996036 18.974418759883488 18.581946839752085 16.385765937690554 16.46857088504661 16.57471645785059 16.046211873534862 16.98768145444952 15.642798227184839 15.059827272519282 17.032468468635077 16.312528959264885 17.15771082885478 17.560219990565134 16.793252946421553 16.328865502870382 17.580860058626843 18.710470055332515 20.615203446400027 19.30401644442395 16.74590253113457 15.450665925882507 13.500956560656064 14.2185891915138