# vtk DataFile Version 2.0
Ocean Simulation Step
ASCII
DATASET STRUCTURED_POINTS
DIMENSIONS 200 200 1
ORIGIN 0 0 0
SPACING 1 1 1
POINT_DATA 40000
SCALARS Temperature float 1
LOOKUP_TABLE default
8.346722069518446 11.624140962960565 11.768184080449855 15.836126349224621 9.926967751478054 12.049816850312899 9.771246577961747 15.541541808052934 25.017614582751683 20.636661716319033 14.475305490102102 11.699515783697727 15.741402064006829 20.98645065182575 17.913998204085427 24.406107736119022 19.197796030407147 13.440119951237108 20.380292860271737 26.547635445697583 16.15698318415076 14.843843389259204 7.65095761667516 9.619106971207511 11.821735603485864 11.769056013318963 19.613840783222404 9.561547105045568 17.95219756698067 27.34027038634899 23.261341117404537 19.92180041692301 20.189245223768566 26.553371494967674 24.91392827791664 17.120406003960184 12.763395222507622 22.499710699754576 10.487595606958728 20.80293059222536 17.643367695015808 22.212537178213452 23.5232553901352 15.174252057937434 19.132052601455012 25.528188628217773 21.292957928583878 11.398223197806443 19.140662893782686 10.369569634432516 16.041326643970322 12.408094186021136 17.711681630848638 22.26110337129439 24.03064472444203 26.310575596612534 13.671828080905184 8.31769928115243 15.067433576810227 8.010475171484353 10.801959738278642 25.875942850706988 24.795047269168936 27.541435410541293 24.48131214647054 15.730764915647605 26.59009715500876 22.115223372589874 17.629886645887574 12.959546862706839 15.92144884145229 22.24860619248517 23.52602744962341 25.349138318295875 21.093172680861425 18.45509459385582 21.600673538821965 16.086296399791337 9.253588297295376 18.547988555000998 17.030707302507402 9.652013288149135 12.46029502744927 22.601794197162434 20.6538050280343 11.371511950485752 7.9436442582962 25.554212807300893 14.478729435183206 10.595299842613075 22.836986845196325 11.624118378880326 9.577697685152168 8.1284206029749 12.16835758961097 9.163365731052464 12.100933379090211 9.578068603706194 14.254969970747895 18.02921108205221 10.603944505334347 24.959847084674823 17.631283911593783 17.887667004102912 11.75045897968631 9.809257201189316 12.564366851904381 14.835101938229293 12.230987595674234 25.72541256425068 23.434710095038273 8.60937974658055 18.222979216845765 18.693001906742005 8.391224137607459 20.766982696205698 9.409419914025234 10.478185474833888 19.181251715705645 10.243027379309918 21.43478917439228 14.79457435953437 12.353398717273045 18.919213774038752 23.33910921095445 10.156105602136266 21.072937428631306 9.130077037371244 18.373329790910745 22.713980416056614 21.862321915347756 22.00062104861182 14.99903324647372 21.14466815234423 27.712633572734696 24.08993328007652 17.395670932930138 23.99284482702216 22.280667064032723 19.79343447921773 10.939561236409574 13.37533508568175 14.655842082524092 26.161916957766316 20.558218321879206 8.101754766156887 17.883534712261785 25.366336878456146 18.451237911318383 9.66535492081123 26.57766666822121 22.688977766475876 24.35225718354178 13.552130821782322 17.20898354949371 14.674690379581799 20.0805117071312 12.465266755877833 17.127278524557052 9.345951463084058 11.877561524495466 16.738725328924964 8.234572175984477 19.177758382330648 26.336999124273817 20.51525852702369 18.82251762934758 14.170374992022625 19.01377180813425 15.60020539104777 24.98986524205065 21.504543557897552 18.038820701720446 16.877679175596654 25.435473717709222 18.966301862025343 24.131806863993837 12.381608679803572 9.327235330068842 23.71521894018952 20.02317211575275 27.088225139288777 10.530484621454749 7.968330120343544 11.404727188595897 24.870312170003825 22.734603734248086 25.337810672305356 22.195482093734427 17.571709537814154 11.166565148861947 12.143316891646219 20.530982237170186 12.773198869202522 18.14317909347028 9.10533578195781 25.168574869353705 18.20068813069264 19.629889422629343 20.618008339921293 8.85603573256222 7.757002221886788 18.199766622749454 23.289464315117844 19.86791736103989 23.219981405346815 17.398092159207987 14.365262961754556 21.1175902347078 9.560440485177294 16.085015261529808 13.21970410765454 18.244120692704815 20.076202571157854 9.892894160281353 26.71736589607953 24.95014995964979 19.481042784143916 15.451406340891713 27.4849184045101 27.242345939820957 14.065890719913748 14.409895509981546 14.81435667104054 9.983330813409003 19.291426515999632 16.715719979952127 11.932625322117163 13.818782539150085 14.278035453512608 17.96150920880517 13.102277543356465 25.288785576269486 25.796957946277686 20.432273044472808 25.075836486232888 9.805679548647385 26.426119671101528 17.294434628910057 25.119096040013414 15.770661245947528 22.12263592183033 27.482813271363106 24.88041745884786 24.033693166850654 20.69990043530016 8.959079895203796 17.063128910941572 20.12994315125106 15.976742146064325 22.103642752294792 26.917364224656897 22.867208154656574 27.493990382167613 12.158768458584783 19.41837168338073 18.68881254636193 18.92126881706511 17.615099775341402 15.64668075370239 19.15023441992338 27.42812515109062 22.576696814061055 17.006390833236637 11.408467374492002 8.477881054467586 14.237942526663465 10.15600759755293 11.285420819789334 9.84122119412586 17.967116553478757 26.672767451235973 19.038232924085136 24.84939496026726 25.382824835359745 22.715895881650574 25.051555052302994 20.305431482304957 25.102268991252686 23.63549796238754 22.778730597245737 17.88051666769041 16.419293931015375 15.181933081963644 16.441747861698698 10.804213399958293 9.951573128938827 15.763622910784195 10.636729796634055 16.682242220228396 15.869586491342284 21.510544457776756 12.331304935739439 10.531008480321406 21.914711149329516 21.1031945923602 22.743348981507882 9.468319295818368 18.66440585721615 9.131956972711674 14.790185021085456 25.213119923487685 17.183573811956798 13.371541332346395 9.670098390879343 11.792993953199618 12.354174763905547 27.297039952362788 23.41668876075123 18.69690149396037 25.390065459389426 16.67393953281307 21.388175700241664 13.085394073532296 9.143478423213999 24.519441029825096 9.444531791005826 15.457728248897892 10.716871454438364 18.10853998059051 17.433934167448317 8.411002319475402 7.8117484823648455 7.908611565874951 26.467211707359716 21.03753190738279 25.57235036848376 11.394694473366112 8.535138108650758 21.76290311136503 10.346636623578144 12.064840578819544 14.49952005722349 11.185769599373257 22.81450869455642 18.010884184478808 26.16241057841782 13.974553737802829 11.021558577022596 7.655484115829903 11.747329720755184 18.41367367151064 26.855520458354228 23.49177919595944 13.342618247844282 11.166561505666403 27.30129640213541 21.87274925387548 14.343387808925556 13.4721659623439 25.92718577486423 18.8593987618439 26.352376823265104 13.281723072393643 9.470648454092883 17.515694791188853 22.44681356857377 23.68780661523375 12.447914261155564 23.653559907759014 25.031574016534183 14.042301941252363 11.30128441276441 12.65833427597479 16.019440186961308 22.44127160146734 10.858452064944363 11.593996725589978 11.431639039746374 11.491747103514772 25.05005501079308 18.03495103034271 17.82713739717476 23.51902318619668 25.438815345395597 12.018752002992047 19.25116443328146 25.47856492510638 25.434974495447598 21.322634777371363 23.276365206242808 25.141706336330422 25.241362571154077 20.77395842818005 17.58680167529584 11.153594709167619 7.269478107411642 12.029160326353924 12.18332307867494 12.900453151478617 13.218393944324442 11.01994455058617 20.06975964783635 16.530197018830936 21.539292955063093 19.372450083156863 17.325460646761126 10.307623330154486 19.795495703520395 20.369905615670813 25.538145424600735 15.209835827990752 17.079236326649077 20.242439988925945 13.71969678164372 25.471540101271717 10.973421130038039 22.78489403175045 23.997168043163708 22.052184880811517 10.709730222493667 16.435684866014295 17.25885766690454 11.566519878318356 10.46425361150576 18.62666851108678 10.871174340607116 19.630438350558048 18.95738995780684 21.50824228635555 22.48283655526548 15.613774070443641 16.510476142158584 9.548833302734083 16.53619372405128 17.348638577086486 10.762043312192493 20.38805332207199 9.792724181489387 10.558002436172702 12.05228661954909 15.924081862214752 13.89067883081435 22.41750438106835 26.20382427329009 27.19280356658082 15.58286725304077 18.33272434427109 27.172440817874467 24.728607362624306 24.38150092357474 12.055322808769212 19.510656459399975 21.028170888518193 16.261770447993154 19.028921966091822 15.137639972799548 8.797027779176059 20.580157002497238 18.30212588469704 9.42326985999601 15.367975504883711 16.98399993185559 26.35446778275666 18.1002380305704 17.526355459064376 19.554986000836735 14.15358697518018 13.72232480428695 14.320231814499063 14.128314091151948 11.448663331767484 18.95326271538503 11.711910791893184 16.26415153764056 22.008242951762576 26.542735550431033 12.49008652042815 21.870808708501265 17.521438552941927 8.801354205972782 24.66875488855747 16.512410324457502 13.831701263703655 16.052759502602875 20.54840077808748 25.320342203621568 24.297861051595213 25.54752944436005 18.974213355023746 24.767421568254772 16.026840234524713 24.798886552656302 15.37202634024614 11.98167343172399 9.268923584097962 17.361077439121264 17.57517071370148 19.334018954828043 26.007778712212325 14.451763638426883 22.65372169905844 19.093395940615817 11.016660878552504 25.89557398898872 13.766757166963426 23.36441723831955 9.843640641536924 18.17317360216435 8.215100108637522 12.153491418493461 14.271727359955479 13.349840647559375 23.323656345297284 16.782738992249424 24.088304216453828 19.54840807791767 26.477443013597473 21.244664880802553 14.191320541663542 22.54293542179073 25.32664402398271 25.28376115750234 21.131672016907366 8.98753839263308 8.82010677232765 26.362830450912814 21.96187281644648 19.84176599734939 23.24444687215484 13.571118763633024 24.503907001532394 9.099698777223425 9.017025930485886 14.257384882323526 24.967830562224712 15.337247807193792 18.76765234016496 16.74997386276243 16.57537599630647 16.201811612515964 12.036240312360714 18.757817180183057 8.178391856760905 14.551081595447851 10.351938869837703 20.113089707216826 9.279744123096153 9.273050114165903 7.7237455389217535 26.346261237085802 22.15676824060693 23.950003093601623 15.93998463913524 14.204479893084823 22.833751309076053 26.566259824653756 16.441190632273003 19.951655812229166 22.149708859099366 11.564442486292961 15.781029665310102 16.397155473953717 9.83516650789398 20.939912613952583 11.639210438107815 10.776597167960311 23.37282187222381 23.934829532460707 17.59926115456916 21.09850866425882 23.658533352991977 24.71189066820477 17.600012819057877 22.482151850939474 15.04064723630959 25.613038311062425 8.786212060922491 17.711109041412985 21.68534044104917 24.271041129108998 17.20945344186377 9.605283294787919 16.77331077793312 7.664080051343601 6.55176506182499 9.62985847995791 10.991292771708508 14.724027930676257 12.663334030235365 9.122932283550858 9.820822160156597 16.784138122306533 18.798081185582284 17.22659027054141 25.079650116093887 8.92943330713867 19.684361036404137 18.893425287782414 25.510844476804245 21.30811503401319 14.693353992323608 19.772420091736247 13.33864453962555 14.125100155784763 14.949941122173675 13.062792217980165 9.437598490607071 20.095058405291923 11.929430049847351 20.903162359618097 12.862603187261396 19.030765907282603 21.879899078157795 21.57110690597595 13.18022147608722 6.722949394567822 10.740012155940088 23.995304759717378 14.391514923776896 25.32343478598721 25.128627418113375 25.786443211829596 15.233606987049578 10.882644226536401 9.807124608407662 15.313758522719105 10.48079295896564 18.86694173365212 21.22770607733153 23.5554485158098 23.952990819298936 10.691707720716764 9.348914145419167 13.324844172024362 25.482736769355245 22.81382644728832 14.490604098875208 16.309719597177907 9.52296539232745 22.78155216201657 14.130106622184663 20.366145183343857 26.43716581826633 21.17230119763808 25.120471847292983 19.84330528787986 23.45454264861335 19.275730080530064 10.820596660263472 15.280033176289045 21.010183180581215 11.071554448867444 18.707400439146294 20.919464560199756 23.675693022205916 20.25366946795447 13.655890259225215 8.794354365850053 26.262853827920416 20.67893626642636 26.52946200641602 18.29813310365478 12.4503651355948 10.967067983278218 20.041182289608354 13.012464925346515 21.606575115221066 13.611105671305701 8.947122727276534 7.942630853044718 8.172333091281448 17.863159843977126 9.190739357532813 10.369551757172635 13.45908332605454 23.371811659403818 19.578026290641933 11.761510084906412 21.770660306828532 12.426497906717223 24.731349351080816 18.750774388275044 12.639209244408075 22.632104646442734 19.0685382422026 14.818585502722147 16.202910706411895 10.072333246792367 14.216858824819965 11.633795998230557 17.708507115965972 18.96212281347543 16.30578348811471 14.697997181476776 20.761604798874973 26.86560579291411 15.360145847743755 13.591971752832714 19.466242994100558 10.51145388859874 16.54064805371363 22.59659779585591 25.848435577082864 12.414201938883732 8.759148812273018 9.296510254719436 13.598795337367072 22.814232105486187 14.62938903962628 20.97380237226093 15.856189060296646 10.432998122683896 10.160204020010646 21.752614095859325 16.461224877506236 18.430606540576047 26.669802968435945 21.879662728380293 8.496710388829069 25.1571986215456 9.988616691811975 9.961622841372861 20.40533195068482 14.946060939301693 16.383088860793467 23.35271949163315 8.768456088869176 18.96427318893382 17.63848846088924 19.818668138227736 12.320944612309697 9.229644327444413 21.165232122055702 23.335472116928788 24.84647843170268 24.287509220598583 20.555060560889316 21.521083112140204 19.533457005941287 23.71524746960437 25.88381726778776 23.787791869822552 16.067858088349823 21.208419676401245 26.128464677554415 13.250443374134731 25.37397531079683 11.688509525254837 15.606098633923875 25.837550128824827 18.14301546256817 17.50745232689311 13.042089601231439 16.197792244053907 26.176445739198524 13.807636047180571 19.601778725034563 14.368863059193904 25.191359418976425 10.467387709256627 11.214899772947977 23.14922881258281 14.739788811992803 19.614255368524212 15.832965702619582 19.8512759429365 25.535854531459687 24.8509843923426 10.9131321158989 12.875456409317572 9.842610854925018 24.33582685726433 25.51198865125975 16.78296520929953 25.989686437144726 20.897182521447377 14.718116583377995 16.043647238950552 24.17808774252645 26.51119384380279 10.682500324299683 15.516692246443823 15.778625065758552 9.680626097169245 8.91234807413618 16.279011376377056 25.964866170789985 13.949971532796438 23.585911460525057 8.57687460386333 13.90239920585206 19.44144124157347 15.836875910225224 24.202525492512624 22.967474075350555 9.572071983220754 10.959571138589906 9.442258617868466 14.550415609577746 24.387503174596866 27.198814698930523 26.695829900119527 12.204385857630701 10.4088838738916 17.47051128050499 20.794596710650758 15.584355301508511 17.758149511594844 16.701090283471082 11.793818442257713 11.809660860374487 14.000770875603099 8.370638822695243 24.64072556138593 24.48043707989831 9.989999762553506 8.839045436188975 13.587732589723169 13.499223994551501 15.192831297900272 13.090095620709457 13.062596525056518 19.390331883072907 21.96405565994843 17.710694599685763 14.850324779221767 24.451242785970493 21.82328142917775 11.493199956988667 11.274569678208163 10.859541196145639 16.34929949140116 17.98840464254601 15.716639781190503 26.91043943983915 10.58758445999974 11.05198323341729 8.53685756886236 15.644774108958424 23.598179097885016 10.10478700484681 7.848696600377409 22.79169765393267 25.95803214642714 24.821366213847146 18.282568030057206 26.599413858187415 27.056431595300463 24.946221219656927 25.418748287661018 19.025241328450093 15.42385894582522 13.000325933046586 10.92481235848521 9.767263380799426 22.489578014941067 15.14589054993066 17.394524612303464 27.298564529922924 19.415551213956387 12.25538230151499 8.753262513976777 22.967290879876757 9.060030926732038 13.960879491574778 16.73234354421064 15.539550716863872 24.04904352585247 13.123636948361836 18.1262155485477 20.062844937410343 21.85236739389987 14.21051082485438 19.688893091987147 14.30773112680594 10.313126685057108 22.05519925395079 14.705314237684192 10.063924795229282 7.312099900854629 12.669118905464355 16.48143403169776 9.820923236412318 14.296561812036009 10.398927246898353 22.446482959525405 25.047728929146608 24.5004089384686 23.830646949655986 11.986114205876795 15.130479278200188 22.41022502523494 19.763484866259198 14.87515723101769 12.838868258178193 25.0860187294243 23.3960533337869 12.573506351766309 8.670668987842859 19.75423178396434 21.015672428421045 14.230374886798398 13.405145017829753 23.626802016262584 20.5691513161876 22.50555952685495 14.852697919295258 22.350902195243254 22.574241018665905 10.930036628357382 8.146438824883875 22.263104058055234 18.878152869500408 21.597502043315206 22.3230854200623 8.849472693857049 12.588479478542654 10.722074735505448 10.288272015678888 10.115713991478222 8.506619000148719 25.375642139870376 15.304286794315576 12.557197030713294 21.610014120211627 16.173521887970594 11.657319998657261 25.118299919877128 14.235426628970911 24.12754550869836 16.105170200056225 9.270184654582843 9.062197587008695 26.039148190969694 20.79391991774381 23.295911878550218 15.229882939478106 19.686482538817565 15.49101059973055 10.843853856091375 13.861775331618045 19.951270970824556 12.274191846411856 21.613382267848426 22.676808952940068 14.675706477135563 19.62958748162471 11.573804796525206 18.777257819353945 12.772969376382504 12.288271872575976 15.815291556963608 20.268960744098617 24.917153695353736 20.2257020464122 17.480107661116016 16.873751305507614 16.730040005007606 23.57390217906946 21.11271379843333 19.99091479445114 25.35089366809123 9.334360034098394 21.83372246114159 17.40835972468579 12.148878134757005 8.145821699657706 19.713088195482285 13.204853952730703 7.504392833628625 16.58520852191509 14.772346156862898 26.794130632022966 22.27715900749865 24.66205779683449 12.416875731007345 21.456956323318796 24.380583974774403 15.568242654040874 10.754866559775744 11.990785278769518 10.551823096994712 14.13250451595619 14.001177330061632 14.156161478121016 22.543245960110134 18.681156840894644 15.729726902986922 25.35432259011003 24.757540489471776 14.326460824495667 13.595075358356123 19.6906806340916 24.431355314247263 26.102927489065696 15.619843700559526 9.352390151815596 13.83763136801351 11.340014154868982 25.452970788404475 15.524949102723063 15.472360924289546 8.939968358948091 23.720633707599312 12.730416672657553 21.681144461900935 16.790501922733643 20.83406052228385 25.79237474123551 8.988163149071038 21.901661430337178 9.239711169714646 8.950655604230109 13.205204811799044 26.475961566204063 13.515091723009999 13.205600203457045 19.365919088425738 17.351552993136778 19.468228461025465 24.348184618031993 22.170792292943464 17.749414608892536 20.403119447201227 23.587365057195623 25.406463629260514 25.290804581189033 23.20544204123285 22.48823426881317 26.041539977717346 23.84424054501697 26.272099494575095 15.646132548883967 19.839106865793223 24.852384029774836 17.77591227034198 20.297741606561395 18.18073995491571 21.23273547505407 9.72207036319672 14.914435129623406 10.997513374975394 26.409891267642767 27.32996974701544 20.67480693290596 21.55802158020885 15.526016138807188 19.900229969819073 24.473842130163412 12.536106035317882 21.9093520209387 12.470582171192499 23.224247689155057 22.04363708590517 25.227289078798265 24.265206141018396 21.093340664362138 20.182577474650532 16.721096877907307 11.168939357116608 11.9910265225279 8.402226604363644 14.8923691466891 23.100986705009163 19.94605100646159 10.755327377789545 18.111694361905727 21.95360434857296 19.272804133203024 17.428233999733724 26.19761074261505 15.108092694942084 8.591443144166 10.397446429127413 22.27585460581683 16.145940249634027 18.828159112152292 20.035590216902797 22.763277503528098 11.834170160861339 20.175818635740292 23.5254066282287 12.02448196397449 27.015797593348736 23.863496841759893 25.29770998876734 22.050097901752824 26.3763612599214 14.514307665666117 12.725211303200298 15.689665880702307 17.908048604201692 15.654365870237662 19.03487671549844 25.291826923018643 20.29425301082949 23.39754451085845 15.02128938337095 7.915823355783791 11.76667934749825 12.479217335269162 15.078537239282271 19.49800230418021 16.139811498496158 10.304695293071235 15.108201809268296 14.33261854004778 16.97560273479433 15.200889160289528 8.879400296216515 13.873660373523409 12.428441106171748 18.541158897881846 15.852593127527934 11.720605105906142 24.27073928774594 22.8497853341527 18.504328726900233 9.665632730852705 16.193779870844217 15.745169045555244 20.42612623687487 26.140583655553662 24.427746923850034 21.627592256476674 10.620345595906796 19.357643396154117 22.171205061532813 9.885283750884467 22.44676755419609 26.060723882533697 25.969335318941845 18.587762992808074 11.013182699175545 24.049537272352392 16.735211648224045 11.047595467135327 16.332278090337326 14.214712369558955 10.489991210827792 11.00130779903838 15.531879398338168 16.42813482095479 16.62017468607575 9.092367366853503 8.992861325386171 22.013404881574967 17.806397544004273 17.230943744680257 14.949812661441051 12.865800664670287 20.54667780621277 10.36622839608504 12.679545315113531 24.068333232584262 13.480382061023366 11.391188510614677 9.897292326125026 23.70503728782529 21.245221073895113 16.49655914085034 10.954921704209388 12.544290042058764 19.017125159492696 10.16881134170241 24.74974303853006 12.337033223456595 25.808065455651896 24.070025191939376 15.188253952644295 16.847374990585056 7.751427388867051 13.995604868022404 15.09956723869044 22.967281682400362 17.096856007823803 25.466004703892292 27.83659169461676 9.673031331881981 17.890373184095765 18.463066653080077 10.22187707055765 18.554347790299925 24.582662348552695 26.37669962729829 14.894185714494796 13.772300412542414 16.16323534057209 13.162588565148269 9.046844444213336 19.603061163712837 8.365766023810762 21.930126945010002 21.32437020162691 11.972016580668685 21.436661002820756 9.884795067925296 9.859056576971806 22.663166866154306 11.415404333223123 17.257844559825323 10.085001890436564 18.30690393688112 23.215507057056524 20.989742099002566 18.68745843070011 16.290699838782498 23.32559829411327 13.549816280017843 22.587693195738343 22.941068545599443 22.74002267018768 21.587867958263402 24.89889417259255 26.02142175403359 13.8282469081156 20.51695803248875 16.269263281965507 10.143687851942866 13.435836775471493 17.85953031553977 9.6543668197923 20.943836602688975 20.279000213912834 14.367093100808306 17.866166942694445 17.092531577287318 24.21424981009362 22.395628135135578 16.710307061229322 25.043082436404045 12.112525079519406 22.706027670279855 22.30222114983371 12.507672056706754 13.375475952684665 11.15273134807037 21.071201879167926 22.184939813240046 20.144478433795825 8.510659915720272 24.163276912781928 16.99149094057764 19.69996041005672 11.786034640926934 26.430480859215464 25.65895236529952 26.850043620817505 16.745737864759043 18.85812061713122 17.35836203439636 23.738147480974817 21.276759636889008 10.061387272918614 19.02438100705143 9.063538102494608 27.032271837090704 27.47409870390574 9.592677858926798 12.022975412215732 12.774074595339169 24.55666107366422 19.159326145869613 11.609778773630467 17.162145442542002 26.476085112886746 22.442230432304086 10.990505450515657 17.055553992610577 14.265244536610602 21.197134362200625 11.99239751225506 19.400906472217738 20.164834080957252 18.885786855727964 24.36839549863139 24.630024785765865 17.290868162933872 11.370380555952714 9.17804166116292 19.758037873624446 15.303862196088295 23.414846643923916 23.672939466822893 22.20006135700061 17.39187861414488 18.88519900333952 23.443284151171582 11.683947777301269 12.902938488458394 25.906819489722544 25.099762679222227 18.613499984714544 26.514439717217563 25.088570611741826 23.576444406507772 9.201725122110272 8.385020532975371 25.536466003622895 19.913354555030867 20.161293258636174 18.239602709923457 21.762043928112412 18.420884416323474 21.77192567138534 18.627477862100726 23.601567229794412 23.45035913164211 17.88022130288347 24.472456949945784 10.521419270400173 20.259079647020993 12.488167108367094 22.208903223663153 14.342452717267811 9.142896739082465 20.662045193620518 27.018743104898224 21.257467192285503 24.46731994733251 21.330391195341157 19.972791165688932 14.227135901689362 16.784418035095083 16.454707172605662 20.389836029715156 10.445599323893163 10.228187497162455 23.07134586538611 15.664634366675653 13.355423673010735 8.59078492081028 10.331476110904562 25.16784559390374 22.93665146235628 21.94367615399971 10.677282545438876 13.617117268306245 16.574613940778892 10.96878074620407 24.002823871542823 15.069236340144633 25.133353563820688 23.909677697587966 9.505733657125123 13.951113062178619 10.903570059142359 23.994620305323732 20.21216429750277 9.116688805594308 21.34508884786596 11.77556652182286 25.200215309701566 12.819439706352295 23.333518731222128 13.461866436070805 15.93026143661887 25.579782989514833 14.656281181087635 25.005108663536305 25.050030792659925 26.244872715979675 17.162891133851055 17.94204786040536 9.122987040427883 17.981666879445864 20.328802501735186 16.19677833662655 16.70282689129173 16.57437532408212 24.76643222879771 15.918991193611818 21.8509356596625 15.368088691937961 14.75080456312055 10.851706238982917 17.040055865747984 27.431356059082436 22.51892700187292 20.82579742162207 24.26469335945822 11.512877800384526 16.09125913941186 19.938769546752138 20.501582992522742 8.780366355859195 11.265074194469598 11.643037435058034 19.81807815694745 17.871928185354673 15.547287925681596 15.262097670384957 27.784999231460883 21.85442362428776 23.181654921128576 16.672248391435513 21.16059969097926 12.576082613082129 16.103085078355953 18.65480189803992 26.413634839420016 10.815809040454077 17.437278901475064 16.984870619468243 17.588163591958885 13.780416616932195 24.774905073065227 11.575075221270094 13.10132948282475 14.636028537120948 19.15975314077236 24.780580487944903 17.504014499287823 17.508390950900758 23.065347245512616 9.65627630484949 10.892566330047842 18.835819059794492 8.028317514473564 17.53851435719534 19.003534703208505 14.346892808384677 25.043773672762832 20.273483131977038 17.24351322347152 9.372721314310375 20.70666151725462 16.764701138406203 16.48202744346892 11.273298287263922 15.618663819008269 26.17996592863733 26.732500994028797 28.018190797459358 16.929422795197432 16.416800377535647 11.565711305849078 23.467386530336334 14.035998446537462 16.648907513763238 11.525208770161338 14.858495880646377 24.31831390260113 23.155698608647064 25.10357824677492 22.340401290668744 17.707408247461004 21.69563885942864 16.016089570660185 9.25751844572278 16.28599906124199 25.47316100199039 9.597445690580493 19.494576222239935 14.044624747188962 12.396559104719753 17.527276593395595 23.481113407794926 16.94783809853 8.451808095521805 15.558791904211978 19.347347010554316 24.348658836886464 11.8566454490677 18.59548974149517 16.11432229690246 12.39925591672439 22.489751298537925 19.62477514775443 9.313869937963645 9.115329386235018 10.529499814459868 16.17168725320089 20.48878528302681 9.264585302918286 10.998229055008133 15.972389365066455 23.003252588722457 11.610417479223274 17.245168842015133 10.882424025164436 23.73842178528169 14.899229915779664 19.497903522575896 13.843530530910643 23.621916362860432 15.067126861572307 16.73043510977996 10.611326239357293 21.414884642786973 19.304059580633197 11.074933505617773 14.945327941933991 25.6675336677218 9.623043250259045 11.174887077579172 17.84750636320396 20.121381090670585 22.95573742756935 14.202841103187478 20.005395540656483 10.19533442925432 25.89572337116103 18.3011287615874 11.82189142478597 16.310370531561432 15.428948451392703 13.278493931140286 12.40745030096945 8.627280285634008 20.03136341968739 22.333943174619144 11.748164295970103 16.464234173971963 10.654722675650254 13.365914686341657 9.014556959567134 14.042699514653295 20.642800133763462 20.030891979156912 17.558441756355894 15.057470727386873 11.16294978526265 25.98637398737033 21.716311286497103 25.54013884797382 17.02021395314315 17.091607565339743 25.993110701863404 23.1841449327846 17.4710356160559 10.502385089602843 7.795620601791811 22.835416001305312 16.905973554107092 9.853789035037302 19.72904370756242 17.606934458239163 14.22221011269838 22.53069810196906 24.09360763741563 10.947074137501048 14.170306555753625 17.376894655288083 21.920302893094878 26.1245115466079 11.878948836094182 25.51137211394102 10.312340342803857 22.141201574520874 18.12972470106891 15.795285657854734 14.642902464951367 23.880220285094307 16.736120791853548 17.243318343623702 14.55050055910052 23.03441947912052 22.176931655492854 10.131109186265357 18.732726676123104 12.050185239676491 18.03317645799368 19.384032683348156 10.210534109435796 11.43206325152489 23.197034185276745 10.036184926122512 12.361713907597183 17.7078378135794 20.012439730095704 13.15566651421489 20.28907307798748 13.942872891729584 25.655748748561543 17.093616926116066 23.002997387081734 24.7260458266784 12.324821000122178 25.182910142644484 20.214977867981386 11.871121638120373 15.851372540473871 25.613748118372605 26.132457836964004 12.776552046828577 21.454217610846417 25.47993015166751 9.062141293151116 22.362424956152275 13.630101924011191 11.326775005502608 24.41247094645023 8.263891929791772 13.609638645841873 20.12555723348951 16.303770087659238 16.852475665709438 25.463755572711516 11.442846651693374 26.69166638830896 23.074857642091676 12.565396128802886 14.30928676989138 7.681789204158757 10.598695315815043 18.33179487929347 11.56951701115253 8.447417315759406 13.913898795961682 18.558253881908687 18.785429999926055 20.69993315401297