# vtk DataFile Version 2.0
Ocean Simulation Step
ASCII
DATASET STRUCTURED_POINTS
DIMENSIONS 200 200 1
ORIGIN 0 0 0
SPACING 1 1 1
POINT_DATA 40000
SCALARS Temperature float 1
LOOKUP_TABLE default
12.391310185391168 11.992334085136731 13.445902197987094 15.690565016704983 14.055262853526852 14.432578967231244 13.013487935595975 15.658279271214342 20.32371743618997 17.77710332069921 15.0789588045504 13.984079446491421 16.49666245129547 18.992472056217796 18.337176857074994 20.722542418774434 18.915841132671325 17.756447933880892 20.22059933848548 22.18582396849862 18.986784205126565 15.197290194329634 11.838882229161273 11.956126440700851 13.064685956180558 13.777464028465833 15.276240334065418 13.264227282182071 17.717052293326258 22.15801692439842 20.97919021621008 18.555020903900772 19.824694663388016 22.06354698436727 21.548946547605784 17.873314156934182 15.616233351592003 19.85782334436553 16.728089041118924 19.375571124545456 19.336484015775614 21.345600384225754 20.91377242183401 18.018028569274176 20.301247657297395 22.372365210818742 18.808817331886967 15.303913933166665 16.548498273283503 14.56419759048791 16.770452972357763 17.02463571349514 18.044494726148535 20.361643380045884 21.24596005526695 22.434891359579183 17.436540171031215 13.540164723571964 14.424087948079617 12.29386911721864 14.238955165971785 21.631130540974716 22.90471382361525 22.957418211427342 20.27979583093684 17.89507849559646 21.385690633602476 18.754185948477772 15.765870542016811 13.895610558413356 15.567527905641157 20.008775057663918 21.669183429847116 21.77293543346964 19.940396336547728 18.43329526922642 19.157716238112577 17.922771827458227 15.528844910793923 18.20487906523131 16.524356277048135 13.682216178973238 14.689918922438212 18.393586313685688 18.166076274845807 13.152987043444918 11.805733607405154 17.732937466085556 16.253132654062558 15.720552087455125 18.13096734626619 15.025339293921354 12.325948222154702 11.262987359986774 13.48809638642435 12.432103862459728 12.706795088128167 11.721716578046232 15.199461389884771 16.10298981754341 15.602107271999472 19.729254289112838 17.753606901573903 16.08172403163302 12.786465614902761 12.34045515049545 15.085210124418218 17.44718116380913 17.331433651298326 20.394277888657616 20.355676572789058 14.488206601816797 17.577398934310498 17.03375821754032 13.543126532667664 17.696107865076108 13.710559666041316 13.748783561728235 15.796337405716033 15.092255109232795 16.508491879360417 13.88648024005474 13.888034746309286 17.360555323703192 19.87153973295731 15.818434578808864 17.29749289230422 14.717678792853425 17.19410759899816 19.85423204884946 19.5986107726303 17.86427403133612 16.47849706326776 18.825777959861053 23.140029559558755 21.675606166824473 19.627638279107614 19.82594737565955 18.177473696336907 16.06290218451985 13.922108309463304 15.252554280037796 18.762365274670127 20.856501184873924 18.022923244796935 13.889719475299144 18.752163969656877 20.736180518244883 18.75053518851642 16.50607554508341 21.511594804039923 21.763087549222597 22.149170439046582 16.594623932966478 15.592807795371654 16.643069324343937 18.288593277871126 16.79862253324697 15.909083430403847 14.125979200440156 14.729331771465702 15.847085457727676 14.162771290838856 18.600232157348383 21.32769739393187 19.286314937783004 16.581148649593665 14.657929545772417 16.977379135598305 17.054772780813362 21.262868051139357 20.486663113497812 19.129150437650125 19.677242914781495 21.998115917923656 19.312118738377688 19.516344301244857 16.682162835043417 15.197786520452214 20.30253534318589 20.596655179782367 22.468402555711567 16.130776629413717 13.88836622189338 14.598037453791278 18.867097322909874 19.236399890268256 20.921115689921255 18.72413018673282 16.790083869342613 13.805603063164384 13.355448414705211 17.16637508798635 15.867330260489842 17.283622332934655 15.168011083201938 18.95595431907949 18.67821962836196 19.25637602711638 17.780905352244627 13.154056283756727 11.970855730418567 16.287019797500015 19.53904490898308 18.451940785734724 19.390345872498763 16.192758467611483 16.7916017125483 19.393128295158863 15.489698644572428 14.865721612732907 14.825601737388196 17.079136475810056 17.354603593557798 15.33493344301334 21.27972437282533 20.821630142480604 18.93072237475065 19.128138076284756 23.627032031400798 22.470642920417227 16.384376578151056 13.902426225556109 13.033052446111757 13.119389311111501 16.168930315707968 15.718638584023253 13.88895159115495 14.366832805075786 15.951580533438065 17.126875453531685 16.79771389329861 21.17820717746068 23.674352629110828 22.617823252885 21.436933314945954 16.257399521306226 21.036702986807303 19.860458656274677 21.685787034298837 19.383868509104772 20.822302495908502 23.300862582068028 22.357474856248977 21.576179354556427 19.856898182581787 14.869882141018767 15.307890309644636 17.956154046796335 17.031251466564242 18.988369705203237 21.36777225816232 21.579592655910865 22.812822793364102 18.11326978881267 19.188395468121488 18.045864591284197 16.643423538713133 16.08187560161101 15.103918723451356 17.355159167204903 21.850866550560223 21.31760824995731 17.98022865203994 15.013625484204786 13.99244268862069 16.55730356346081 14.109255508400041 13.762695579921623 13.368909887094915 16.698870511124756 22.191643014060443 20.871152278173366 21.986713347589102 22.320065574364197 21.901456784935228 22.749368450311156 21.23655590861269 21.59495892668544 21.57072091025831 20.564854128169344 17.33980130675411 16.951955177913053 16.479771353136393 15.45754032731209 12.24418869373817 12.463603957883189 15.645330456383583 14.669111019568199 16.621041960435104 17.205100207096876 17.922964936198873 14.288252037893091 13.197521563554956 18.186082699197556 18.039153882843944 17.98185215250683 13.123368316973052 15.373859017045909 12.912309569461186 15.050062816335993 19.73356453712583 17.21114291630539 15.326325996260406 12.886475610764617 13.741495046446653 15.957040959466184 21.96999091008191 21.159195049381616 20.128245741667975 21.92603415844005 18.595750558246987 19.29157273658071 15.766780735233679 12.731253987518151 17.38751982056658 14.67752682323674 15.034219948527165 14.990918615415406 16.793762710296537 16.257339157984134 12.74222959968741 10.452353543862529 12.858329198572948 20.361639585398194 20.48306728116888 20.24844889955937 14.718631914076704 14.080266956478829 17.825960762620014 15.090687016929872 14.387580905707125 14.920592174017044 14.876316657961718 19.693127255788163 19.341348288287207 20.56968461189937 16.087013679086635 12.965376119216316 11.612084450972858 14.585551281083717 18.3695342232517 22.22456244382767 20.906608910912766 16.288110763843854 15.824174686978914 21.938288992333945 20.696757426592004 17.223744649420574 16.738068662544922 20.746283408653866 20.190903428422562 21.101927680558408 15.09271793229691 14.010698683246606 16.27639102851571 19.252802838698262 20.1582333206 17.58171540837859 19.25615584199145 19.971660856432216 16.735293724117653 14.627211741112543 15.748629263237016 18.38431887426371 19.05436591533264 15.4566333519147 12.90054153388078 14.057644565610891 16.077664445742872 21.41787650611365 19.081486925149267 17.8864407992747 20.1553869347853 19.966123538553433 15.424108359539105 17.833627884335854 20.026879550997762 20.26333835591989 20.31616327916867 20.372390032975993 21.700388535412912 20.62290322283895 18.44770723864072 16.745890496937857 15.356370200445593 12.559887773331068 14.765790938154796 15.125975171003324 15.498857477452521 14.578598036255075 14.10272515262219 17.825217533029928 16.75097194202527 18.252598760406663 17.257232370741306 16.783477738562972 14.590652305863891 18.062972415823378 17.45649748316719 18.61077626165957 15.600784058515872 17.32816109693292 19.205208025517504 17.99962134196783 19.519344162784073 14.912277012028111 18.346494718255684 21.219205095107064 18.478286123318583 15.808487453291221 16.90872074975935 17.401796977044846 14.49472140155246 13.01737000318713 16.466282696274124 15.714166132380857 17.583224421103306 19.055318333469355 21.552029735197735 21.533983774974672 17.448999813032952 14.72517225291175 12.436055338869009 14.796422696701432 17.290965240204695 15.42830031995896 15.799956641091386 12.861987356516263 12.47808634019246 14.682029401006488 15.55871880916621 17.899837869721754 22.519369691576337 24.12639264849084 23.81689702084942 18.51512833950917 20.60068772972438 22.755290173037622 22.191530373985103 20.489291369869 17.576849193779843 19.057679208384034 20.083379389524122 18.99929152191151 18.77595917245922 15.57427107793027 13.55664521106674 17.152515333833055 18.0084407524264 15.877467503338881 18.120984478233584 19.041408979232845 21.313573271307853 17.740935517836437 18.005951996904983 17.680918646715117 16.20310056604688 14.778425438847037 13.841628960043545 14.041036314848348 15.001400668856455 17.227809942889195 14.327451378494223 15.216565694510823 18.1254732248748 20.583265422568207 16.317960668917976 17.084433614587358 16.098996520915584 14.649446029542299 20.738215336103824 18.279195229149146 16.819404484455468 18.648548142362095 20.53002406192727 22.464192549174452 22.237479060344185 21.791260561294482 20.112090304696853 20.367889281336996 18.336365360413154 19.789642520289913 16.37851645787399 13.873351142212663 13.22702676654475 16.456851990038803 17.18078007586918 17.689834685637585 19.97686641615862 17.025256334690432 19.32662417021034 17.90122847566631 16.010273256946082 19.41918379922085 16.604009166552565 17.763628171337775 13.764719585595019 16.00288862348874 12.427514451653312 13.884836472548189 15.545275586395665 15.242855909189034 17.74045600819756 17.538333028143864 19.311719394644435 19.634109217350336 23.418933382539088 20.831472941414855 17.316146083034813 21.140208016137155 20.94965681460324 20.954572383856778 18.197167808960977 12.839942961846457 14.643279721052043 19.711873734514246 18.782221284592218 18.71653584716151 19.446338837692508 17.116476319118448 16.780344383777628 11.542368739854274 12.513709599167795 17.8611351080951 21.558764129350124 19.40919173644887 17.678389425116155 16.86248100557964 17.411128971964935 16.474160546944287 15.654310768698437 16.596602263100205 13.27583362205162 15.974475832761009 16.045368114496636 17.53987182379479 13.946718348631531 11.27192068054646 12.396352416897795 20.019390006528113 20.915021115333264 21.30488410958042 17.85894871557695 16.646721482202896 20.31672488494167 22.17692256225903 19.2104659840871 18.528221554258113 19.150041290845028 15.952969950112525 16.21518297186703 17.43801524425898 14.14098907336993 16.501366392050095 14.79272468967019 16.11887117416819 21.118203590090243 21.072644451392428 18.63647203671665 19.405757956504612 19.77263489193902 20.67436984996261 19.338828973150413 19.82140592734953 19.23591356659129 19.203647212979167 14.030450833778623 16.487447751332905 19.899893683918496 21.835463643664312 17.04900988914947 14.108686755006417 15.499328760453976 12.174614452350797 10.124153464375022 12.832311178352871 15.491438342187333 16.09879145347004 15.65772930183026 13.322741626091203 14.376233135083332 17.468519170435997 18.373865508039657 18.914878432774 19.24653451606528 13.1659040669966 15.646946332716661 16.998369502921005 19.818984855841794 19.61640540848213 17.69622727146454 18.69971235384461 15.194092623707874 15.126530552515746 15.58344149747167 14.95523122964278 13.479181416058147 17.283446487593356 16.538152724645894 18.0577654848182 15.27720063791885 17.214048064274923 18.8560196032319 19.413472615113665 16.565090555633102 11.311082597593636 13.71976142889466 18.99753824533199 17.568617897903145 19.979687110081713 21.02559815113261 20.448054705531653 16.246369995071042 13.702200410661494 13.68501926529801 14.73309399894972 15.800549131154124 18.65765630033224 19.886480357722007 20.651579469533008 18.889574192241668 14.200096543834272 12.55065495131529 15.546187775971655 20.979818307075263 18.570022090327868 15.516688537964088 13.891385201497407 13.429573715783414 17.67151546958222 15.7068130609764 18.075535868094423 23.111432733276686 23.47021476789034 23.688842842071143 20.682180452607593 21.967610033720177 20.967142059590586 17.79568406461421 18.199581547209704 18.050751885915886 15.66322844896564 17.683616714011112 18.731495428641068 19.770420750862076 18.516989311354877 14.754785774411348 15.22846672055549 21.18920111268433 19.80743916064214 20.24134529795485 17.354776644712103 16.255183446165244 14.262686943999277 16.829828184476092 16.17009190586148 17.594361974275238 15.348127732981617 12.018722625063102 11.522104638070802 12.751075986419394 15.865266760733286 12.580288434154221 13.312467316371787 15.816611883514447 19.434086260447035 18.197024698338417 15.821387929383375 16.78275737400374 14.56711367384192 19.56912065843416 17.84720624198686 15.240965429902372 18.52272382665239 18.37224709139438 18.450354548282316 18.455589907785093 16.642966422204545 16.30585533811662 15.310399041987822 17.045278113460316 18.935811097779094 16.988142669291655 15.699965592296127 18.020062460437057 21.50328670509371 18.017369436463355 15.740286544062288 16.78081433845677 15.001017903716747 17.793339026705915 19.669139097670325 19.656652233615795 16.735170429811046 13.444698893870903 13.998833161784644 14.783768941000927 18.786742122719254 16.346425188454717 16.41167805054675 14.75542137572779 13.830097807762893 15.170509374286421 18.790421962768473 18.602228836963267 18.559493830860273 21.74608661834351 18.884580093461825 14.151300931314422 18.179704074771077 14.842190139507741 15.943605835517362 17.699723762622295 15.306177582807914 16.79999852303886 19.072689943871644 15.231393625776857 18.293121533287866 18.27380919079696 18.255586123495068 15.136573403873427 12.294222463762534 16.52540559799093 21.19420958190328 23.122940023892145 22.034464585899375 19.78047879709152 19.56567834966471 18.898137006113156 19.65878161856825 20.591493572129053 20.278464488522683 16.73084471853512 19.379339269807165 20.409060234929687 17.261548055342967 18.42114751196751 14.039945333131636 15.78693439820925 20.36164445160843 18.619521451534553 17.904284444550473 16.256209758873982 18.020786089977882 21.380991019511313 18.389991914870524 17.962653023502323 17.521552863994568 20.393794949609177 15.360247365128698 15.344545351952306 18.93662306061703 15.743548883610915 17.971997606031703 16.52377830645601 17.849101954171346 20.968530107476123 21.070853680337258 15.166575053112984 14.018492033715205 15.319663679485767 20.62665559262869 22.371734573749045 20.470897278167268 22.01060706887065 19.670764183302083 16.72291568954103 18.25257236727864 20.898457574639163 20.757433647958177 14.750370993801821 13.94946036768992 14.468929169027936 11.753608979919443 11.571899697975455 15.981888694677178 19.369477498493023 17.052055995568146 18.661311476716698 14.043732476726566 14.368956542631256 17.03629026770002 18.33591389413498 21.522454407859602 20.691462563191102 13.442299667694636 12.292984986713542 12.923588215038436 16.646066103154038 21.718253328821618 22.308960316015945 20.87707668763327 14.618569561953281 14.366258702829558 16.339084102788092 17.99202891157646 16.29212047215354 17.923948835390778 17.88421168697279 15.090157832861877 14.12684786276288 13.969218503311206 13.996938041790408 19.821669576127153 20.04583973767757 12.798769037884751 11.892659069530897 15.123263800875552 15.257235268072384 16.8629756862365 17.15541674258117 17.185673736942867 18.172503611026663 18.792191947255162 17.72727586982004 17.875053486657364 20.69823078878276 20.319151666910816 16.812411064374455 16.184100855083802 16.039554846069027 16.58671829184846 16.434737050192282 17.74385534355149 21.577229383253204 15.866675499672793 13.586904569712168 13.02032951555329 15.66833570143005 17.90124314577217 13.517449325944357 13.919830746072341 21.653186336371558 24.283132266239328 23.322184655192526 21.095369726050425 23.211130679625 23.835683127144588 22.446190707042177 21.093065631783283 19.052868374817386 15.816794936129833 15.66010008203909 15.141662570171542 16.27439560248945 19.458701445639583 17.321077369214635 18.096998201515593 21.716211062811706 18.26477931105612 14.967477891143472 13.289266943726629 16.77771059957295 14.120972300411504 15.453679413103263 15.866117429061715 17.445172841726638 19.061960722899716 15.557385706787565 16.34294721310343 18.31236189004699 18.194069899400233 14.616983740284617 15.703750787275274 15.67882662155714 15.68919232218459 18.51216104711839 15.941140170755562 13.859050758733442 11.561664049932128 15.30182035278147 16.379101574527102 13.675469185236768 16.455046198553777 16.56007247753603 20.54697048369884 22.279151548674 21.819094813836674 19.22029235628548 14.79205948873077 16.398912031582135 19.462634738836293 18.27481807221225 16.653983010795915 17.84496848907405 22.023836090962277 20.225744055998586 14.643095169411929 12.938244381172424 16.037383612506343 17.75530360889154 16.695894949043886 17.263395512441786 18.987233974004926 17.656330539269906 17.92575543010657 16.680667871125912 19.67377343942695 18.33388583865148 13.812397596222294 12.706118593502492 16.7815095745438 17.89025691646827 19.54254501392842 18.40695705106699 15.207337986501496 16.01145319222108 14.257107120114364 11.851104242353102 13.24187735868888 13.358861843586174 18.91206443167121 18.07242548466833 16.606832332202377 18.596910375667914 16.799419991752277 15.382465709762263 19.69937909928189 17.36160189944631 20.09699546934734 17.154767416183738 13.56808064637513 14.67782135144855 20.655965123101474 21.869559979323554 20.904137216162948 17.352786614139507 17.943080220763402 16.057682761543823 14.320620646698243 15.865984673590045 17.86425676821099 16.146858126543876 19.21951296821176 19.099741930022233 16.083956575397853 18.010158802275047 15.103615387288587 16.499816887682506 15.644510912490816 14.850323407819026 16.614727678978745 17.917099899335938 20.21467197627742 20.599618595903248 17.38513727022834 16.528365832577347 17.116359430686707 21.18562152306526 19.690848144137714 18.864628398273542 19.563391330238076 14.87864227629952 18.192729174080508 16.319550690689283 15.383513905106872 14.70010348355484 18.490405292489847 15.18200817803394 12.407809574883089 15.018014347112016 16.971984666484506 21.671201240457766 21.121580750873388 21.780472033229717 17.771591871486674 20.073770381516724 21.351490936184685 17.340437998274172 15.202932471457327 13.423931539678842 12.527224179503273 14.554394731410062 15.18745882928913 16.07736830250753 18.492255480390636 18.33698528868916 17.367278667587723 20.44056398549549 18.63117115373611 15.821916318427508 15.392148682170602 19.26715800180639 22.37334999172165 21.435091159458022 15.977213007291713 11.950264053367773 12.746419866161862 15.390057680802288 19.98184822264898 18.303644957298598 16.11322061264736 14.152059099744623 18.23205129204169 16.991445880673012 18.972747005018377 17.95942968204028 19.816943435278535 19.663821265530398 14.315642781564364 17.220290736349547 14.03005423179304 13.276517181516013 17.610855560767384 21.438403663168554 15.27552579167308 14.539069207004365 16.677709324547283 16.203579342782547 17.95104239669292 19.96791398692397 18.940851749472735 19.02412174808156 20.131926097767515 20.741505563359183 21.757022234403962 22.817259175843887 22.491844446405914 21.14899465062963 21.399321690981115 21.52879350216498 20.946364712695214 18.7118715468545 19.74884311956738 20.904820220286588 17.38321996853209 16.95278933629157 17.47117891269177 18.268205352649428 15.11196973039126 13.620514624395977 15.24565831370138 22.122767152414795 23.974340932681883 21.360490405564832 21.181280728722488 20.35846427632648 21.70903401565923 21.31417645949161 17.907900204476274 18.83610090859032 17.13845835407275 19.335697247489527 19.051243436535174 20.6488453807486 20.943380020617955 20.753576812617187 20.02594185706235 17.246044636954185 13.780921979199363 12.733307345169987 12.973435182037107 16.338533311385742 17.818969853237835 17.709859294732237 16.124027528305504 18.01030940372348 19.268219184381266 18.0366830366337 17.98110978382189 20.545202411549507 16.297586117057012 13.13964963437754 14.641459731069716 18.083997995833812 17.756212708673043 19.292289450431763 18.587543032566934 17.173606319916367 13.842060772048184 17.643351880489682 19.113227208793766 16.94436067067815 21.63641414696891 21.694545325004945 22.584048654835822 22.338146235714095 22.474682082981573 16.886306903376116 14.523757268902095 17.03163762235946 18.728010942729725 17.95886529531333 19.722533954772715 21.73148411815021 21.352139943652112 19.43026723732454 14.68153205718298 12.814274557219333 14.221588340941697 15.340617739928625 16.148674216723045 18.06257559899391 17.27782488674075 15.286649216791794 16.295478955046594 16.612551459130106 17.913592134790576 16.273494351046555 13.258977936081122 13.210404748029099 15.36006988847618 16.901987937015786 17.212193093672745 15.761205985876025 18.157549889481448 19.5238286572256 17.759667412813442 14.23829281465087 15.94102717941962 16.640959234086168 19.985831806482857 21.283843347474356 20.832792591938492 19.460599340997366 15.770062882439587 16.60974093047531 18.43609255496363 16.268835635866377 20.099729952676483 20.95194885741239 19.09207352970682 16.57051612214779 17.578779243994056 20.819660786756664 18.266611793399278 14.332237820366704 15.492578520057231 14.53571520863789 12.634890102709491 14.237638766030505 16.02054638456992 17.062565681394492 17.163732784207937 13.444967619409416 13.19676304840636 17.62361990250539 17.837924093704434 17.098369865302327 14.924137386912012 15.097174678203844 16.731465516563432 15.54511386042535 16.455916220453283 19.855118855415068 15.658804509175349 14.095618053577716 15.564067888949486 20.31911804500326 20.64493007748422 18.524549899702464 16.292245588787377 14.699077358111706 16.879819873433316 14.467886852419044 18.103721983272347 16.507592023134574 20.54260728990937 19.518426951851342 15.9994268646491 16.240509389540172 13.504643663970013 16.545661413512523 17.442617253595476 19.821965193794618 18.051351507664627 22.086639852512732 23.37768378194627 16.628989067068805 17.01141632977378 16.70870412228377 13.50300183891572 17.040308103559195 20.677909032332302 20.977050221965246 16.514610572512712 15.106896891251036 15.456799048187273 15.792357478328265 14.738791044432574 15.90064339677698 14.238900528577759 20.062388238214396 20.59700297077978 17.927043096333502 17.453894500294354 13.340385840602995 13.00480460744192 17.168667573106816 16.489391168990363 17.089570096918067 14.13843082573788 16.56399845426145 19.966208346537343 18.971371895226856 18.329464514267844 18.3254569161981 18.95354446047339 15.949174071082899 18.01950895173221 20.71571617018896 20.35381329763883 19.54969404102977 21.46294762074345 22.27477092031582 16.068091689141273 16.59747677317737 16.1416875239737 13.153462269605386 15.171183553877245 17.26275762567013 15.448438073596437 19.17408649802548 19.487024284550508 17.531429587235067 17.79972408309065 19.458391385446678 21.5688238513977 20.706776411122057 18.86636175720733 20.677715820052846 18.895394942460552 20.98279283757324 21.111587664883956 17.01185342065382 15.100427461889756 14.949547973432804 19.117241509936925 19.44502397242968 17.039421918942864 13.838008071602177 18.352869055296473 19.974034330076023 20.416593588907137 18.69063245262558 22.594628389110213 22.758139070170987 22.78918284850867 18.937073562073785 17.07167635196602 18.390872033126556 20.518260779979457 18.743641025644248 15.892733382124753 17.345248214337346 16.187137576230715 21.821091083676595 22.097280054368227 14.876842961992269 12.515732763055276 14.313516029331122 18.46865127056995 18.268417723327016 15.73434466631812 17.84682066070932 20.158265692126115 19.02876073605453 16.52762600238692 16.857692830864607 15.59947620315216 17.438174686614307 14.719769249210028 16.416149039012275 17.994867985098686 18.33070234509839 19.949595496422408 20.664943744554115 18.083918542730995 14.221103082144182 13.106194636354404 16.96370064709195 18.578488870292702 20.05228561877098 22.00730192379048 20.861469752381762 19.917582920591258 19.487608877158472 20.070098083746828 14.9890315009505 15.762612155131032 20.665108572827776 20.86476537059661 19.595644504818402 22.831629032460295 21.85536070574095 19.50460162098303 14.83153757759031 14.210216495518553 18.85728226015346 18.068408602507624 18.14076965759837 17.702885989979404 20.000420866354034 18.638313495296423 18.012960357051597 18.212195837998614 19.751863315948004 19.713774003481706 17.64381810294142 17.29474037877828 15.142963491239305 17.296558165620766 15.790161539741462 17.744311961174084 14.50739688730634 14.072997495501294 18.21279429469192 21.108496230924118 20.047598380667285 20.725690200223692 19.603631428409578 18.84418945732146 17.32689154772687 18.868340983795253 18.695313841277173 18.039794278707525 14.82768862163071 15.350267882766717 18.980103100603113 18.23585287517462 16.120197590506194 13.136761308099366 13.592836622067292 19.81250778298362 20.960713316384968 18.462896646255942 14.476191577071447 14.76538874302944 15.228457304498095 15.023836663570343 18.645489343990583 17.003692504298193 20.041445348562522 19.433318923068434 14.41984678033046 14.697135688789999 15.29398793440753 19.74804452520037 17.629203876565505 14.823842022749501 17.01941823128557 16.017504023525706 18.372135681173454 17.195731397076223 19.48631691642909 16.04616925213265 16.337981523126007 19.948926691930463 19.131128560063317 20.877416721749906 21.662728593993094 20.259217824906756 17.400171482233873 16.805837566234082 13.142944468563405 16.749104429767627 18.21360655281314 17.435097280868877 17.30630608347366 17.530216410427293 19.578033597319447 16.489640414640203 18.26218708881159 16.54443927760923 16.91401880186951 15.541405425305545 19.694838498003524 23.667993615417256 20.280710112688347 20.558692820165447 19.81635160816701 14.652974042549733 16.727241532414812 20.139431423288606 19.702312818481985 13.654593176490645 13.707528851936962 14.966293255304278 16.464742789374462 16.90564925669863 15.929675788257216 16.003578320290956 22.08165031401443 20.23095415202338 19.43318919907845 18.26189603306194 17.15621491739424 14.905879194808719 17.348342565313015 18.029556442415213 20.88276730002873 15.900140089154064 16.33035529799502 17.172676819176168 16.216597359034846 15.903086063754749 18.994395916873483 15.344805316540734 14.36959194666569 15.869921338976692 19.548388294139635 21.507207604573892 19.65991681747048 19.777194342265098 19.982780353728984 13.867808270254269 14.356619697886172 16.117154527759713 12.212169701108772 15.436538331333276 17.776043538825544 16.184350375688275 19.56596392986011 19.377488407867393 16.90257909142154 14.283843099353634 17.623249292912902 18.792967747938764 17.759867735711346 14.713605998169333 17.169180879048177 20.622972194230606 22.945368708213053 23.94309112080722 19.10662465913592 17.335834317682504 16.282502814622646 19.611674710901852 16.362487650077252 15.941502453268424 14.962369200051683 18.000518812732807 20.880451225757337 21.405689909567336 21.625698278591848 21.23534891240561 19.152438618302266 19.416540231966728 16.18482226611772 13.49660583375618 17.109471976439334 21.06470302246237 15.780784298166333 16.758362620516138 16.81589158576175 16.25998696965461 19.037610273499226 20.33976003242376 16.159759780042897 12.346935940827802 15.297064502984679 17.77042977334155 18.848609016380667 16.085449774299203 17.29139736949631 16.54633445130018 15.557936378076134 18.00292298143195 17.792918511443517 12.693005876621271 12.342728944915622 12.979948201092894 15.6871284348925 17.707468455649266 14.505065205113462 14.835962573980979 16.749333417244614 17.846875569770837 14.424434342069722 15.247817452409306 16.062705406968075 20.319630876722893 19.039311029431804 19.35385892380776 17.58730492945647 19.050941845642278 16.873404783727985 17.319982303874763 15.41076301707234 17.512007107647147 18.942809567757596 17.07949487391529 17.53258261491624 20.90575872623091 15.410502720139647 13.991437580728478 15.568837524473933 18.430499106574665 19.35209030636254 16.194297345527254 16.921314300465173 16.19994846898408 19.95424423547941 18.06211411607048 15.271019786835488 16.161787421603854 16.92973694983133 16.224981551450536 14.782240650095899 13.809997287595351 17.987458146135744 19.436929581809174 16.195838707990543 16.67010815832523 12.777423491047541 12.100797210832306 13.10257482047617 16.47545242135524 19.51003102202854 18.687827393892327 17.73456484587127 17.133021638902786 16.715558149397776 21.760731387874884 21.65567737022645 20.72335288433793 18.17709626113595 18.234397021143455 21.13426094475032 20.672231197016004 17.89091306552132 13.120940867763904 11.642550367417662 17.4416987389557 17.618925236911288 16.309928982188225 17.54793002558559 16.50547682820664 16.380448289085262 18.952257904867142 19.529144022396974 15.325561176450885 17.309858608536086 17.906549647029756 18.715268614161552 19.59311721914423 16.061381889262123 18.76205411942237 15.449066955225163 17.258138886626103 16.910342844174547 15.685185717733438 16.20372749076922 19.39021939108988 18.873804224167994 17.45964770068298 17.020226772511737 20.268474340865588 18.854202470646605 15.581513892700091 17.908940430199873 15.877597734385933 16.568474994504612 17.76830187245874 13.986206982096641 15.127948351724328 17.87261629232491 15.474604233705083 16.245045282006203 17.80823549067342 17.844048698164055 15.527602701829712 17.368333265805884 16.67904254408614 19.001291016829725 18.42103088413446 20.926733198100106 21.990585436807933 18.37461865930272 21.126798035609863 18.697340991802967 15.52395634268869 17.130444194217905 20.652249568591884 20.444910950942262 15.715615918487623 17.588383064377297 18.229923126659482 15.024376806190311 18.272408173665006 15.135278058553002 13.947706766906515 18.526613241928043 14.406295073883165 16.48759421099207 18.03347141812812 16.852269732871143 16.375037568387626 18.822077714243076 17.841726137579464 22.284629833448424 20.20945451178211 15.701441109035772 14.916185231649445 11.492132077127433 