# vtk DataFile Version 2.0
Ocean Simulation Step
ASCII
DATASET STRUCTURED_POINTS
DIMENSIONS 200 200 1
ORIGIN 0 0 0
SPACING 1 1 1
POINT_DATA 40000
SCALARS Temperature float 1
LOOKUP_TABLE default
14.573030970192661 13.839602186859684 14.666582141207043 15.692361177317782 15.734052514835009 15.474861264268716 15.07419939642239 15.91378658546466 17.168524454485524 16.609388899313153 15.641539629681064 15.566223664422457 16.575006805088087 17.569747107872836 18.014168264230275 18.6019122318182 18.656771097044878 19.009256211249017 19.832473824645536 20.241445551358236 19.04523008360417 16.748331370983596 14.74686333775091 14.060039582804725 14.356249056102536 14.696117230419404 14.922220076907783 15.372319470577455 17.114210592720205 18.68298509026481 18.72033357593149 18.17869502184321 18.804595374554548 19.698265333991372 19.681362496189546 18.59959107253049 18.07078611121907 19.15250008768794 19.3723195895058 19.733470021702786 19.932466481513448 19.99444104725867 19.53415166229735 19.073393060174872 19.588166993586935 19.617794214615696 18.05846941469679 16.589664605283826 16.228289969777055 16.332179276583364 17.196809929466838 17.89392479487394 18.34305861637811 19.111129989733403 19.641289519994093 19.872440488909675 18.4243193786987 16.452713679277753 15.417794364342011 14.923957956164113 16.150824234283537 18.775538624941973 20.04739189364443 19.633974327257782 18.42560509127326 17.898972287945554 18.192669254745798 17.078556935133445 15.576030143611641 14.964205135951886 16.00038614347583 18.223355017760724 19.451532342447994 19.391306696590227 18.7422484340211 18.232492188002485 18.451918106923234 18.6180906860069 18.35216572942156 18.185072999088693 17.16005022848713 16.226041310992546 16.32902331329254 16.873498806000455 16.386142441994856 14.687204561522185 14.195448210213447 15.53663905919228 16.551953094880872 17.098903493484965 17.117887269507072 16.020298004103562 14.623061400625035 14.054244646643177 14.34183486333047 14.043128240718108 13.786143486260425 13.970649745175761 15.198620669025768 15.955272575067363 16.66440914051474 17.40523632069129 16.81818451980955 15.687465512815608 14.600819272113991 15.033669125006684 16.898488107585052 18.4435596448314 18.688414654677775 18.76463691611819 18.47576876994815 17.368185009695278 17.51878807439953 17.12393669056132 16.373540254057627 16.823348044558127 16.331062762149013 15.903574820369629 15.927771823459175 15.9096015572236 15.334697217265568 14.468767990352793 14.841600295701092 16.49786858119257 17.841605929603542 17.546258042053847 17.098652129635028 16.78070243382106 17.321873535254838 18.051887195008955 17.777034261607028 16.889689038212836 16.716215633623182 17.763940631028955 19.379678650810266 19.532548328740432 18.813175444816178 17.74443716737365 16.418801601164237 15.494592719916993 15.549739319793714 16.904412832253755 18.68818306494058 18.88143038492767 17.843893229018356 17.347099982969556 18.60012714434928 19.335127875883884 19.190548940035924 18.93603041475718 19.545070536296098 19.998683410158808 19.67043490437486 17.717974980802108 16.64021038796206 17.085634607214633 17.721275153369966 17.55049520587199 16.80586198702805 16.277618195329335 16.51517476635397 17.04820087960697 17.52810540135052 18.715385839454022 19.283871481432413 18.37137792093412 16.757481302498565 15.820480541243965 16.439392670985246 17.466403756328134 18.918459934078633 19.19181966640709 18.980293738998682 19.27369883499077 19.44917244609676 18.65589903828963 18.178155126825928 17.79586743667688 17.80238167255807 18.963150505005352 19.75330225104518 19.784967747338683 18.06180711865145 16.656982089270233 16.34381945102819 17.036783075245424 17.508261589753314 18.003896180564848 17.53414636791918 16.699826287977974 15.534373281847921 15.143246290732115 16.03018659442658 16.513374158769864 16.908568137856594 16.887651244593034 17.4651252570902 18.002887169497768 18.0366163253571 16.654948961154084 15.140638889608155 14.582571477940016 15.793105103626399 17.162632105122782 17.36694931097896 17.047882340394946 16.253479242607252 16.870724147087792 17.814155602375493 16.987014757365074 16.06144935136274 16.02960514476545 16.642686624147487 16.854289310929584 17.034974293883906 18.217080784294716 18.623143768192367 18.89353212968198 19.81280460915921 20.76530419343627 19.79406154446468 17.094649473604004 14.745962194341457 13.814670354166621 14.305966058978578 15.229663278887244 15.293437046237923 15.0056255521802 15.470475066837873 16.46796924372386 17.212521423781617 17.84387050156016 19.569965462020026 21.296421874107754 21.54817872294638 20.421617960831114 19.15435728621454 19.808171580943046 20.1632046899541 20.353016268235635 20.102091615596702 20.178189715572692 20.410789052962308 20.259883107029736 20.009124598084 19.105289926471805 17.218175672046176 16.23536627608823 16.68067974654577 17.197404821338676 18.009559467409368 18.99092630161487 19.62454331266493 19.92718825348536 19.279346460215535 18.88230596938641 17.78925556302494 16.427961248353185 15.522268399456799 15.169161517206366 16.309360396111497 18.357335334605654 19.046934496640908 18.067425507578353 16.96096198941032 16.81578933746365 17.24015883630961 16.336520963146427 15.410343114810903 15.278908249703075 16.669712110471814 19.043345970128755 19.905680724103835 20.048014218527882 20.152718467566434 20.28925569459753 20.57086981220157 20.381920197794305 19.985983917231547 19.56926843776129 18.617075480568126 17.459426062970568 17.02328606438137 16.567145931678173 15.56321710762144 14.38660908115086 14.55380744973569 15.687658282894704 16.32532112513171 16.93644915360788 17.116783615657443 16.703489973505068 15.596972148577121 15.208479478637562 15.984916121744556 15.939206618785192 15.43925217535565 14.61769032558017 14.908157853138091 14.940726355134556 15.737322647491034 16.863682550539664 16.61626861580464 15.879819166116487 15.227228112519574 15.769551326953732 17.49943184656105 19.45411730844625 19.741334204378344 19.531773098520805 19.526517462390732 18.627216927526142 18.07377144158668 16.741204752556325 15.500938694190708 16.030458763619734 16.128341459916403 16.074268676772352 16.324337868822877 16.492330365166833 15.811079804310426 14.382016529503018 13.729023758203159 15.33004470382997 17.954977515750528 18.880141249636814 18.330603592338512 16.991264402619773 16.72434116836453 17.198230203586142 16.81801229407481 16.228989201795734 16.158168867044548 16.786323344441445 18.35177950400584 18.829460221675514 18.297559634696967 16.624103706990297 14.925395688037632 14.608519450274645 16.043366595722187 17.97970843067932 19.422008131831824 19.096319282042142 17.982407235780748 18.070382845868885 19.382626665449465 19.451745983743127 18.67728669572234 18.43308879809068 18.963235770232 19.209309892419263 18.728486262571202 16.81249686082493 16.048606515636344 16.63874692135925 17.850017475822032 18.554394937266345 18.2267865332059 17.81967595099096 17.695492557294944 17.386624001408528 17.31287635788539 18.047084599107706 18.770592004485053 18.355434338081647 16.81051950832091 15.546010864861428 16.145164469948938 17.706017539510178 19.17636940431892 18.739246037341015 18.041123428627 18.057718562101414 17.581038830563713 16.65665446075568 17.03358862606693 17.74042293853848 18.1440268191335 18.66197475689667 18.853853503691035 19.042533877995126 18.45294312262826 17.648605699140255 17.115461417430677 16.64547656254274 15.843025709754725 16.09294331738649 16.354948732388117 16.47282464147215 16.15941498808741 16.096316361404103 16.736419550571632 16.662689179308448 16.759518749057264 16.640351632956357 16.64834104997958 16.672402567246152 17.19567627389077 16.596137795135505 16.409565619572245 15.864794328761606 16.71089152581718 17.826522056782924 18.041139064896534 17.45204241911493 16.216056718467396 16.877419897654764 18.070779074832693 17.637635400364832 17.099980922891252 17.152619626513342 17.082287596565607 16.232510333838803 15.753934086474448 16.565481699974576 17.20297928767582 18.049096659850335 19.27406446365229 20.299923127662115 19.760069875550744 17.509182855130636 15.232010918596714 14.264091456960122 15.118307127685675 16.34745045762438 16.042177764004123 15.14930382819741 14.51610162436741 14.846816337072921 15.876940807909316 16.889386116536336 18.976531175317884 21.48722783647006 22.503977664857313 21.855456148134273 20.4615731369769 20.713128530113188 20.996411860107884 20.640763142048392 19.83411221564798 19.214710407735197 19.19575786038586 19.351964026869528 19.17797527259811 18.4644018575394 16.945727364822595 16.06642953032753 16.82141368285121 17.743610691663477 18.077052052818157 18.613517647357458 18.91812819024198 18.957066776317927 18.077479958170684 17.755318629469517 17.224931153708543 16.412674207851097 15.423684886459192 14.655975337969544 15.028782337337883 16.218932543176095 16.78942876183005 16.027595200279215 15.875291128689554 16.7656640336042 17.607681893533826 16.90779676735808 16.13497750666999 15.821654200526194 16.50249071194773 18.39990349126269 18.702339076757863 18.557191468844 19.213498732683266 20.02389862087792 20.707980521428723 20.69102789772504 20.16541909470967 19.424629109022927 18.663378744941053 18.04391949580586 17.769187277008864 16.750887672693494 15.64995802991515 15.40251074165669 16.24525807078541 16.794332857025 16.905786625256734 17.255641896461952 17.271742710116545 17.519354492972695 17.15006597413546 16.838847664035537 17.06073339573462 16.50536826936766 15.982753158383971 15.2598513635284 15.401413664678929 14.912476728871297 15.119544588256836 15.742008550895704 15.981026236189082 16.408511983113513 16.86288508887469 17.620450056767794 18.782410006959594 20.094948883699608 19.589588271573074 18.678825191884513 18.985623652137587 18.715957285550562 18.34616389789755 17.079170493290555 15.685552744364461 16.20118122013093 17.073738240453764 17.223817733578997 17.547949535257693 17.607384043147725 16.788442052499477 15.199096027728684 13.931832417715347 15.236651443235539 18.186489966580485 19.84748272874953 19.422335435734855 18.05978693214039 17.41561985372531 17.369191760418445 17.032438442570708 16.739299166871938 16.56087727360541 16.368371700270377 17.33966487878574 17.77015390293644 17.300634369396395 15.811027768551291 14.399787791132432 14.945039230728321 17.212927865162932 18.75205937975134 19.264021019012326 18.60357057419745 18.246545617490142 19.037992031300366 19.680147640358108 19.186934486255986 18.54876383858495 18.33070595566673 17.842140493446 17.67138394142371 17.497998267823327 16.3115340248807 16.13928724267904 16.449346121417456 17.63940236255708 19.040591386822165 19.10740080775253 18.227261241372503 17.860791728633334 18.024840387962644 18.63098938029528 19.204947447058213 19.49898842847761 19.17021351944941 17.881815200675106 16.57557492518092 17.149622894496982 18.529998216763264 19.047873259269757 17.504211852335924 16.126824795193922 15.659400972359743 14.729917883562601 14.186528991704362 15.320826707458282 16.68750046998804 17.165737026861645 17.14187795144961 16.60539724845578 16.848145294919192 17.578955527949287 18.14162421199477 18.32639648153251 17.43980785126542 15.507310073921271 15.216201604081126 16.00193014522006 17.280321166226656 17.99419753189137 17.920699808823798 17.571650419921816 16.440899711150117 16.10454489836213 16.148088937700987 16.152886104853902 16.13611485033729 16.935698503917823 16.98248727342418 16.788336302223353 16.102275636778444 16.5380188928252 17.476042296423344 18.014752357626186 17.09231966840663 15.188366730486074 15.496715461869913 17.026724092049164 17.481348690699157 17.94763119810032 18.339029213771646 18.004599599160542 16.843498310444105 15.998369537987406 16.137897909025867 16.772468632914265 17.86923099584511 18.97171780046419 19.490506956428156 19.147514587486008 17.677547270584267 15.899078180885674 15.237702031517813 16.396449956450795 17.7640336378641 16.949416597959388 15.492946572655901 14.616363448766885 14.908971684993178 15.876906387567965 16.406366743195335 18.279246839495574 21.220172609870268 22.708950418945115 22.47347831276062 21.428922308631684 21.425787797492667 21.243595648613876 20.323506946744125 19.339936289448573 18.421363788083955 17.795355412088636 17.964872071437412 18.216716932883593 18.27294469625233 17.609800336059163 16.786293236093094 17.367144557717953 18.532108981189307 18.38801584987262 17.948095272668038 17.386903155775713 17.11001999763382 16.498962699669264 16.649312636772777 16.716758336537538 16.623929669936842 15.813084386266654 14.638123593426851 14.503675399892929 15.276172234032648 15.67253939040613 14.949293819880046 15.171575946173638 16.388723453458216 17.517911903747237 17.341080334778642 16.469325195603165 15.81785295737558 15.831906104278989 17.285615480967813 17.489764510313602 17.209263025497503 18.09349164457559 18.984015621841273 19.77244303362897 19.903752951406464 19.22512510995897 18.149368142404104 17.35113298448136 17.51815407780187 17.930524350911938 17.308536440643472 16.772977958540128 17.376943450348183 18.37198528204993 17.84185725806225 16.709594138287315 16.3952752388886 16.570312942827492 17.40981680204319 17.81461467950463 17.7276565543221 17.2263126511679 16.228365473524125 15.9015599597327 15.971863213444323 16.60416748012322 16.010918145363792 15.329485518692135 15.10544069982952 15.521760498223623 16.529994279295988 17.609026387750216 18.110980250365856 18.514928847284203 19.062283521023627 18.02520868876588 16.68355251957672 16.923593213462823 16.989955488420186 17.45323478682058 17.256426830048852 16.531717989513446 16.89331579990149 17.34411741988091 17.219739913598616 17.812135992768116 17.96516016185464 17.47974881937558 15.987414076302027 14.806858232446254 16.166962419397073 19.030763708993994 20.67863894703257 20.246155514580256 18.888797006272508 18.125476260706286 17.708656139960812 17.518201991906828 17.67630300501376 17.646879898032704 17.25146968287925 17.888861407711218 18.021658633300397 17.30946795189524 16.453630966518244 15.390120756426754 15.909513063902939 17.41355454451758 18.006127721253982 18.10043710752617 17.925050018542123 18.454113097944497 19.274356763076653 18.94050485629756 18.30439510003094 18.234943861157554 18.56588560688211 17.789319527558067 17.410392537291372 17.40408365935297 16.582941919428247 16.680368294986042 16.699714503198976 17.459833739896975 18.601482260085945 18.67264512806294 17.16793748105553 16.341030443616667 17.04579809097708 18.694407950590648 19.976742404170146 20.266283636646587 20.0659649116511 18.953279734860896 18.116218786812933 18.487668082200024 18.858413025424998 18.23629009743574 16.22266204195193 14.880504200024706 14.588679852818778 14.124341343961968 14.302562216400686 15.754777094983222 17.043677871275957 17.284725113780308 17.175651435140786 16.20266980231076 16.044520056802522 17.041598445102178 18.505341800163613 19.431088031219264 18.405630117981115 15.680188185144859 14.34973037980495 14.947637419808654 16.961272660229845 18.807309683403044 19.038384667715444 17.996767116702205 16.37091149363344 16.12284985268674 16.52166267737124 16.91859230456366 16.9812317344251 17.537959695454415 17.465750999151776 16.39615652598873 15.762577697924023 15.728728979937316 16.50908553690934 17.913651705500147 17.59324132711346 15.299463618151913 14.752730033127786 15.804305407195644 16.48925635239673 17.385840660782808 18.044520357912244 18.077823306019184 17.87193853049691 17.728423959842257 17.786885057721754 18.348834727289304 19.315179262547407 19.678357019265793 19.18510046433172 18.641245224153256 17.998240358657835 17.273578373968427 17.070080322404472 17.920466065803183 18.56786308727612 17.12181278478487 15.657129466869224 15.226185203843531 15.678383710351858 15.976386285727807 15.731548886182878 17.305055223257863 20.586141777042407 22.452030920871625 22.398382861086457 21.795224033759578 21.89616286294418 21.80874806724436 20.854886925235295 19.614428338773735 18.479863146367546 17.46998203337218 17.30477316571534 17.489342787574564 18.061273220925283 18.39697576544378 18.150020602276427 18.348502376612785 18.531434428268987 17.37973102040933 16.198116735876383 15.71893817185233 16.074240738761596 15.988004988989534 16.32047988975723 16.677800798111253 17.161632842018555 17.03674648853403 16.163464520066466 16.06335682235934 16.569373597188534 16.242577407586595 15.25353082870773 15.44437418870232 16.370339905811882 17.240840632994132 17.52207384478028 16.62077811779553 15.444644278033744 14.942746500452294 16.19786929819058 16.823387412803186 16.825141991836375 17.92898634758982 18.96572444160288 20.108805334104506 20.56553970418354 19.858071099686978 18.116581414780715 16.82704185850983 17.27812117000255 18.14357435707515 18.04860429895559 18.035731768994562 18.812781490499226 19.494060095875092 18.305949109711964 16.225893886977875 15.386326345907113 15.878130469370287 16.832222029035464 17.3723445899863 17.703412643775827 17.53512059779871 16.852344045486813 16.710404492383812 16.93307748231866 17.45784298275766 16.616347925089386 15.203396662723389 14.771415529878592 15.715556207300388 16.884058553999086 17.711791662235672 17.598306657553636 17.36603896424202 17.437396850970046 16.473262225346883 15.289034178228235 15.538416972825418 16.229149664067084 17.600670230822782 18.04449336881064 17.74928224125241 17.6866013466996 17.269834887205604 17.034185298766484 17.806196886087495 18.070827151887467 18.197753481399275 17.10979139217662 15.872134158550697 16.602969138616114 18.956901052012757 20.319284084221934 19.653724010556495 18.073218438546743 17.232111572653828 16.507833999343852 16.135850620314088 16.641272218627087 17.191234014080607 17.31227698790551 17.7643401735572 17.42446303607793 16.75873687675809 16.709038918901058 16.23436139998163 16.26790543792188 16.47398750487866 16.595611746801236 17.024548625706057 17.549777189706454 18.454896370541924 18.942833642683937 17.969333953429842 17.32814002516453 17.880750769598283 19.02817763941129 18.848359688148946 18.294894711919742 17.7065699065633 16.668845398279025 16.699125786674106 16.42150111783229 16.726538649389006 17.364035231618395 17.82309636721377 16.67015940074731 15.64661011510095 16.18045393949609 17.577076260837384 19.23314633640058 19.867938622830923 19.941301102176023 19.27773169215589 19.447431695504466 19.612611660370597 18.507062980613398 17.125417982758993 15.489397330316457 14.582574017883392 15.080787082356993 15.714903870766209 16.22177026608886 16.77883574416682 17.142318735607024 17.243383763834924 17.433925779185433 16.71026936339879 16.199325924798224 16.844608991611317 18.745613662678736 19.897535401314084 18.9150778050909 16.287817291810054 14.32844072235771 14.463035552427359 16.333163804862423 18.09403288499366 18.199411905261318 17.107681862306507 16.347419454724143 16.905254360838903 17.33151720058242 17.740641249109935 17.874450259786475 18.07092093979556 17.491703114062684 16.33327208376941 16.57581767282341 16.42378031267223 16.821426796895164 18.277929102518076 18.44925221264679 16.283630196434864 15.360340288683206 15.727215201716605 16.025982618267708 16.99622195969519 17.911911322018035 18.145509050582792 18.568101825539124 18.922029072369632 19.05883250431291 19.55188575447833 20.39224109830394 20.650108320446353 20.085319387997153 19.596476710395162 19.425411750492827 19.140342173456954 19.008513754752272 19.24546391747141 18.888556084060138 17.390354986758236 16.524695865231237 16.673224564404684 16.773935822009545 16.11235088065775 15.609751523487827 17.216512474796545 20.190330898708584 21.773317533798394 21.68324863306982 21.50107560798843 21.505095746609996 21.348502468275065 20.28686595389921 18.991075641008344 18.44657078013235 18.079395936136798 17.97293965903414 17.999246574789314 18.573616374507885 19.109231505030756 19.38345542446752 18.966588636930723 17.48308672079696 15.644519194678846 14.879388317333298 15.278814387659171 16.22056643714182 16.582874590410942 16.95627641877203 17.234011918838707 17.645127175312467 17.701427646343344 17.199547477217674 17.008993687580144 17.16296245808636 16.259046359298182 15.45141458323643 15.944540000013284 16.96863540411713 17.753053951989965 18.12858055612876 17.297929469774463 15.897800321460409 15.250470263992513 16.529173572747975 17.649809614047733 18.168538874096757 19.413971002720128 20.15449780987001 20.73365122852775 20.766781212796563 19.876835477618872 17.8016381947478 16.75317568673543 17.589229923319262 18.527328888275754 18.820571550445724 19.39629676434453 19.84349878301578 19.533634479314173 17.929351936449326 16.025819720247437 15.38091459075455 15.754606948391784 16.479673374155652 17.11254715139105 17.739250815525324 17.57084180666368 16.97747330780807 17.007511873631525 17.35029025781949 17.556043498834114 16.59508069460858 15.26041178796588 14.970724783298078 15.889241058727297 16.690540486035623 17.052676857654077 16.67132374593447 16.812121252455164 17.413426124621967 17.17129474071923 16.418695868435478 16.61760632986444 17.271006395142205 18.45455140203231 19.015806433549145 19.00078485576317 18.481180328769362 17.439471333045798 16.98157614043179 17.538221824359272 18.02154749256847 18.563537912011753 17.96393827326959 16.71926178452657 16.678909297141384 18.326636217977136 19.385323493152626 18.453076512096708 16.74483504743082 15.98634893904391 15.451527113068877 15.251800466871968 15.9826159118744 16.74469557965867 17.26922552395868 17.208015322357888 16.207771966021827 15.843736852139664 16.571469094398243 16.934365571489113 16.61223583454877 16.059894814860268 16.054459179628843 16.47737329858868 17.006467532991742 17.793858864384866 18.24892132107913 17.170798375579718 16.676827399515606 17.647835015677302 19.070161083971193 19.371364210023636 18.780527895121153 17.701867839618494 16.594314918608852 16.386048064329163 16.00068633950137 16.631230033523916 17.31786795331064 17.991996750082645 17.45069991842634 16.537040136747883 16.415513015038687 16.585474839996255 17.66281258903749 18.353792732384047 18.85286357181454 18.98965106911297 20.140492420533366 20.524802212438605 18.94274577800372 17.677310954787743 16.429604147329208 15.510689905084032 16.461078561621356 17.810810556562824 17.926665129204498 16.85918648028704 16.244466355367795 16.2497269227445 16.48861604386339 16.256470552272244 16.0518454481612 16.67582030246415 18.716225103724884 19.50139816179528 18.64249992655341 16.880700258532805 15.14081189461488 14.936293569946196 16.35898886694736 17.500214919186064 17.646816172607178 16.718145048262972 16.63881807130949 17.400521484384218 17.529591747441604 17.664120716840202 17.84532328743048 17.538545623249497 16.716943318721288 16.92938951178422 18.291885676186258 18.712783817931967 18.843008880614892 19.48418997007247 19.108559948994564 16.86524484841575 15.844672098270483 15.580407374317518 15.192307291482937 16.05617054205619 17.09754566593094 17.434920855345837 18.31324562624749 18.718533528057538 18.395798300664612 18.463550314372117 19.382336846310096 20.047249408023422 19.668135476796266 19.048146411848542 19.256761125280537 19.631163984663225 20.155014670766175 20.148654103144967 18.85065168654093 17.36704413483213 16.956311919881212 17.555932294938614 17.368416348688715 16.470564719326138 16.096277012049647 17.680157880840323 19.751475397231644 20.761362243264678 20.854526620169693 21.109151994288133 20.979696598137224 20.433322658713845 18.959768191940565 17.83331857095806 18.15929146982248 18.61863439100714 18.090286085355743 17.66419339637641 17.998507747833013 18.56353074546137 19.494043434137012 19.03541254099605 16.70116167991842 14.835350175645118 14.966810787041783 16.118211737545103 16.87659570818268 16.923507328097667 17.310955130721094 17.60947130210794 17.59081871138777 17.373164346255706 16.884236746466513 16.199502065332243 16.07371742101472 15.621473492195232 15.811537338458612 16.634544113079023 17.26676667484738 17.836001231772748 18.094610433521204 17.219854790951196 15.733334248207116 15.376351676696537 16.815157541226068 18.388351280838194 19.235134372297303 20.004592735935304 20.02909853659063 19.915841153539773 19.542964496248327 18.804474399414033 17.294248963235532 17.126246440621134 18.340441208853367 19.036799727370664 19.32789925068709 19.91159152718031 19.406704805464855 18.19866770735522 16.859394014309522 16.31947267634596 16.601789795732188 16.6923323842928 16.991845811602957 17.499148209329906 18.195016222401748 17.91708785854024 17.308936684307795 17.39270020342413 17.80570881446737 17.757133900726654 16.854780880724093 16.014943860609712 16.087387750748473 16.72339779622817 16.75917739829249 16.52220188354788 15.517405047762551 15.495225030182757 16.773823663377172 17.914750173884993 18.19486425973449 18.27582749353758 18.306752392048068 18.592400151222442 18.86039078182572 19.348857588614056 19.091958862575996 18.08287446235998 17.253468705451347 17.50760017900164 18.259632352630227 18.431918331727342 17.354497968087017 15.740520801180253 15.608961527629756 17.481167181725834 18.592685550510215 17.87694211414948 16.511542499340123 15.866549379470037 15.75100629205155 16.087751036119926 16.85664597633355 17.20581778317957 17.805207727054274 17.54371279212273 16.44560330615165 16.115378661204097 16.558562937949024 17.217020274599676 16.7687337484055 16.1630911205693 16.152296495678378 16.351165057032464 16.958947017450082 17.737724502650924 18.145034972712313 17.33845608161942 17.22245237171909 18.250369046108183 18.966216829600402 19.145278594406502 18.946509748100894 17.988757549859496 16.95829248020415 16.446356207753148 15.794404614973498 16.485250451230716 17.270416441646727 17.64729257752476 17.57905900951699 17.343865146607275 17.187536643345712 16.754806882501672 17.15541465483718 17.37456673034579 17.797240584714523 18.352719224305382 19.95017006795372 20.812570008839252 19.787733591289754 18.969446219479853 17.730980212031135 16.498497369570348 17.195522453848884 18.47274044655207 18.175175847910623 16.43243012954104 15.734378820040375 15.879289062938915 16.178730482537418 16.345870781442475 16.102184502893227 16.581976995743034 18.369585934496328 18.708265415078777 18.31180163234891 17.46219368427846 16.32580652438752 15.948989563265672 16.98644547330419 18.034853244719955 18.59146784461362 17.544622076771507 16.789373263848248 16.64501201113393 16.200268205885934 16.415597004017464 17.06829089750015 16.521259471388415 16.023921115380748 17.172588995473856 19.056356197847837 19.964040469079556 19.889603414144 19.69028168635589 18.735005258085323 16.620224355630743 15.818864882582204 15.521639052960035 14.91232985479829 15.808328887328246 16.84078306747474 16.91050925104888 17.65825166520998 18.07543468112996 17.43890024661155 16.98030774312216 17.858392084378544 18.760540358229957 18.42227536920735 17.49487637588963 17.924656726930305 19.17420330334634 20.537008874558676 21.08615746779411 19.893900323640807 18.542866690126047 17.89680163051327 17.832819035059245 16.918464486511457 16.35567124267095 16.63816657892961 18.1267578637679 19.515673243226374 20.222105765254334 20.390717250309756 20.050030051592945 19.178744993804692 18.363145310070745 16.99510770205358 16.30836475822675 17.450979550014758 18.57626692365567 17.85047965826912 17.740172941283475 18.224293935722024 18.601843340297712 19.09409383839716 18.530913667976343 16.470436833235482 14.834662243703901 15.183877782613095 16.143335646982806 16.745221040991016 16.806010166388837 16.855527493143345 16.672677454880144 16.55319387099287 16.759472664583885 16.399360749705814 15.11062138283931 14.737698288184161 14.883297305160509 15.62087733976152 16.482820739008346 16.445925690339664 16.472182986631196 16.73712723805273 16.460194054117757 15.604365327762997 15.827673007993969 17.29347493687722 18.98548103419353 19.484356867420473 19.436362936739936 18.919791450207555 18.638288767661326 18.211485555090313 17.910541710336805 17.35571160902304 17.595670569191537 18.38735016548337 18.511976902805298 18.51644976372772 18.640800529409336 17.26599286474002 16.05208511782712 16.017376938452383 16.844635845709544 17.03848365861532 16.46465939940812 16.547675140869206 17.20649791913328 17.920924712739094 17.596192795926154 16.834172434210316 16.85489839334438 17.247926678705518 17.206743559278685 16.538683032400154 16.234424701096298 17.29755741952564 17.992096538136572 17.42621681826089 16.456457119100502 14.646824107910966 13.972807426868274 15.134276836694015 16.951515683576254 18.023052545637295 18.004437961194636 18.07094732084737 18.57496609225945 19.244185414345747 20.275164624542764 20.183246500258026 19.211604610615044 18.49491098814221 18.468894355513466 18.93846249332366 18.952448606255583 17.726106768648332 15.511078627008574 14.501229763190285 15.926410818009973 17.35465073653001 17.731734461416448 17.415479162442352 16.84266022573301 16.802107435695564 17.249921084145136 17.48058823994778 17.271574737358534 17.740801499537557 17.618673987150167 17.26725576593287 17.09650424666151 16.671074601669027 16.702779153637955 16.270761131204793 16.10170938513997 15.860684617694805 15.711032511517718 16.334524798100063 17.66936318727728 18.33959412959404 17.939200903397786 17.890424601333695 18.426608240044015 18.175335709052185 17.590197443445216 17.463190731484037 16.821550996059646 16.53206151077126 16.767171572227987 16.42707676896799 16.77735065682432 17.314965166099803 17.585144328499 17.786256279628677 17.599601998245472 16.988754146065688 16.438535232844085 16.668819443069776 16.844936569009498 17.46401768364699 18.421493562114257 19.732342933744523 20.201088384689854 19.48758379742627 19.000340023050732 17.795579505014395 16.878084929535337 17.374722019267118 18.264367820973924 17.916390561464155 16.622613096765075 16.271955930510305 16.248071085754166 16.231645119040436 16.539143351620485 15.857236930785065 15.605420245773175 16.685101744627676 16.877605124678436 17.33684965095149 17.376955254092437 16.773427283985697 16.46905446772421 17.37380547419494 18.674385229537208 19.78590209675936 18.913700905028538 17.147213675675708 15.853613681701567 14.623362323384272 15.083744166798537 16.473138480868432 16.20531904047