# vtk DataFile Version 2.0
Ocean Simulation Step
ASCII
DATASET STRUCTURED_POINTS
DIMENSIONS 200 200 1
ORIGIN 0 0 0
SPACING 1 1 1
POINT_DATA 40000
SCALARS Temperature float 1
LOOKUP_TABLE default
12.617619900223938 12.105587853447004 13.55859044412334 15.685190126197142 14.277996036650878 14.557708004928072 13.229040892173584 15.683906871908977 19.99590767673704 17.64398494519442 15.111716203384255 14.142891943496545 16.51853569723846 18.85078696656901 18.34349883874266 20.49379424559801 18.899046517076325 17.952477871500278 20.19968564014377 21.976834582119412 19.05120970921745 15.313444169726566 12.1097961569945 12.126102733094005 13.17351995571973 13.868344119868931 15.129008823065679 13.48679402959268 17.676537791846098 21.816443708634903 20.78151265922665 18.50660156374833 19.74019204604815 21.80591443794273 21.345560475277125 17.926408642930436 15.840285108753612 19.728657210446254 17.06364122202372 19.36610502479688 19.43493528630995 21.23418216863417 20.768122094440255 18.177250603223065 20.299426656984945 22.125593604716546 18.717075557608577 15.474232090614407 16.460490265939686 14.783113744807949 16.824806147216428 17.197219065253215 18.089535573399793 20.241230057743845 21.087556075780313 22.187493623515525 17.607733773022836 13.85830735406251 14.459471526238701 12.55355267971607 14.455869513256939 21.34827791350403 22.703804214448986 22.637918442994554 20.0643989229166 17.95483197199014 21.053630678752008 18.560936979099168 15.690311608941903 13.962737944164955 15.574306430315586 19.847674433896433 21.49681753608249 21.542812403521857 19.84074878314044 18.417814194865283 19.057148189935663 18.01850438964414 15.890647523138377 18.19241253706643 16.55071695412461 13.935213655115035 14.84954318912821 18.19250457117855 17.974580500529058 13.282812945423585 12.034856929475513 17.380033723847735 16.32189780651168 15.943123282561094 17.9691001432076 15.158692143581401 12.530041534296764 11.51540933115306 13.562225244352607 12.61348844739683 12.772666463622704 11.922700815511954 15.197876740409093 16.0529836795434 15.796217468706695 19.470703647895526 17.691660402616208 16.006600517482077 12.904287435491073 12.556433636905519 15.262512657364644 17.591326030197937 17.544991732390645 20.17160213810217 20.1398627286601 14.832971379558828 17.549178895065506 16.996392027998247 13.848726582995193 17.534855758213986 13.99670376643927 13.948506357026439 15.722399185015744 15.250774428305936 16.30715118785 13.88698790517084 13.96848548530571 17.265938043882635 19.654538253752044 16.07800721893387 17.18744034255722 14.972326362420564 17.177055913370943 19.666606354355128 19.414567792878955 17.697755213064486 16.506233601480975 18.708092448702715 22.782837767083482 21.50793327180977 19.63783743389358 19.595684234819764 17.94590290947569 15.922796342586643 14.078990645617917 15.426640862109195 18.860127883770907 20.61133391433309 17.927429696845994 14.262735661375466 18.740865006291877 20.539657042437753 18.78814047608634 16.836879399099224 21.25909294887434 21.642763381730287 21.94259278325201 16.73933938716008 15.619477487954414 16.70150726088304 18.225944992772433 16.94421759047303 15.956760657586887 14.36489915919364 14.910536925981994 15.89825806773545 14.522124712034515 18.58292499459602 21.074423894791195 19.179096653970166 16.526431304292597 14.721856067332569 16.87041493974209 17.124881608794222 21.02716566760342 20.39825370793381 19.165852654594758 19.74260386827421 21.766972348188855 19.285764305590366 19.328908939232168 16.85111929765616 15.528835284679236 20.131818584790384 20.576636112675338 22.192469102125337 16.408520902728558 14.209414907611318 14.778882110593326 18.596265650115665 19.034515595604233 20.611362859322604 18.573801764725996 16.757738645547548 13.962662614094432 13.49078633766546 16.993645518236598 15.99437363858702 17.248956504932533 15.428777053209918 18.71475883553208 18.64220828270752 19.182386478434257 17.63775553772642 13.379687745365414 12.237334108252034 16.2055005168188 19.290856945619023 18.369034858910304 19.129583848809 16.175550280660335 16.858457524285207 19.28216395700196 15.733197820766497 14.921742517257224 14.929361441715335 17.014693981179434 17.2554658452701 15.582109870978119 20.93757761910486 20.576472361782397 18.91907561580395 19.278656766469116 23.358807951058516 22.199013305904334 16.483735370846983 13.916426379605793 13.017082122300465 13.250811503310898 16.03260499527567 15.657552676354728 13.993415985121995 14.45472387793813 16.018016255691563 17.125504605948265 16.94679320738481 20.990926346451026 23.487467726228957 22.620292297326177 21.289385241641885 16.59163169145258 20.82195184552753 19.93741639305166 21.515159475317738 19.51958229310632 20.77353129818572 23.007459627748293 22.16817692344622 21.4366438003063 19.802873093670982 15.159699006718714 15.326487131731257 17.788000056308018 17.07023425146635 18.848412606596305 21.08662836603241 21.42935675795101 22.52505547812989 18.354895331015133 19.183424696126092 18.01055234654081 16.567945628917524 15.984541821364727 15.080202674865603 17.233402711415355 21.498316624509478 21.158946303844775 18.028141826748826 15.228980431416188 14.329239566791559 16.6671992990782 14.369382237127203 13.916826277083814 13.571255306379863 16.671338002573172 21.886372384516793 20.883988078159543 21.806986002071024 22.12121295226558 21.794291545324 22.56567391253143 21.219670902574055 21.41467590515016 21.39942466963859 20.375308152006124 17.346001292557794 16.96563472336217 16.514415689881517 15.428362927998721 12.402709632934217 12.64837816865942 15.630097418878144 14.886119647728158 16.653653644429923 17.228393463133006 17.755383069448772 14.410828413336077 13.401021954609874 17.93604431978138 17.83575364232768 17.68313338606731 13.306002043941652 15.25409781614521 13.124396168918226 15.107688320103813 19.40323546755209 17.18622848771619 15.400730446360045 13.115711265713694 13.904968062643531 16.147431845035097 21.684093654710228 21.03170951597019 20.13268358664202 21.707093967028435 18.658852092171415 19.167296449041682 15.88669107741028 12.98367906387361 17.110400972237144 14.880349470261114 15.097709102722337 15.173125868173695 16.75469457457464 16.20354714740258 12.925955160271078 10.725194762726659 13.126320908651916 20.063307217888116 20.364791726834554 19.987746144444916 14.947816543506638 14.377586330282965 17.689243904912498 15.31808081930015 14.562863087071307 15.000653038662428 15.085337359687509 19.536381971982276 19.355725301633907 20.291162165552265 16.170903246873078 13.121485778938569 11.892031143498608 14.747156314419763 18.354109625066837 21.946379945830788 20.719849022234374 16.469687971182427 16.08848524600304 21.64028699844431 20.588171483065853 17.39236904276516 16.931491981136887 20.500043247803603 20.158623382752232 20.82655652027962 15.253806378042466 14.224791104246737 16.26748001522143 19.075052034298032 19.9883921810971 17.751659457643743 19.064249488417104 19.68969880353599 16.827920563542815 14.88561376183965 15.981352796125003 18.452023467189488 18.94553840275416 15.624838433854265 13.09760082373639 14.239990360292154 16.31074166631869 21.201951955286336 19.093991019391012 17.91383315603468 19.934309732305817 19.67433130699169 15.582887740605658 17.730974026107376 19.743211684559217 19.992366796734036 20.17721238805088 20.211445524310726 21.437927496092943 20.370064104897537 18.328539104231744 16.757907037001537 15.52745803357249 12.917522056656896 14.915901174578243 15.28391628483616 15.622873495607637 14.717832450540627 14.308252565659952 17.69261156069568 16.754205529336122 18.06223457203126 17.164558089931358 16.744149424491702 14.840539810239688 17.95701362631154 17.334105263813996 18.293549821953395 15.623653406659585 17.296666529455866 19.112823608377283 18.126207371315676 19.255475387799088 15.076031306633253 18.15336644298514 20.934184375265964 18.370377428494933 16.007467113215526 16.949883331919008 17.38093162387916 14.670455709666413 13.251544177073988 16.406947603404667 15.906517826602586 17.563762906497004 19.07630110762876 21.48714725035923 21.4136984157227 17.496531820730652 14.702789190315688 12.592345949848308 14.777076849179412 17.23619555086798 15.586946088972892 15.64546737530987 13.009760305930008 12.685280765048866 14.800654834239495 15.645858760405076 18.063120745678948 22.479542025367007 24.00664902319153 23.59918389712903 18.727858456009336 20.651708627315806 22.542300083298475 22.015936257547846 20.359920252429365 17.808434919206192 19.070103767807204 20.017933810028293 19.087340543226382 18.74934777709869 15.676750393979086 13.805096977410408 17.044852646161214 17.985558918505234 16.204849162365342 18.235505110467294 19.101666026456975 21.041905481361706 17.763890498529683 17.98764952969561 17.615639386261265 16.255139008130072 14.846794884795091 13.861534780053951 14.089205363274562 15.169472766802615 17.159692553335496 14.493630676458162 15.21766067397127 17.92770448163291 20.238697813533044 16.449969180043542 16.90538018122637 16.027659449001263 14.921170948416584 20.49784807647936 18.369432056850794 17.019485825157584 18.750473522188436 20.507322853395213 22.292718464815962 22.09123981501956 21.601738372168274 20.096266546862832 20.1623491535334 18.366577182096595 19.543313609953668 16.4249124161634 14.028422756192532 13.45011062038637 16.41545476508019 17.153677030287334 17.597549090905623 19.636481236288123 17.12055797085561 19.133364536597313 17.833760228802753 16.182818773673254 19.128173924212692 16.66461517159814 17.514654057160023 13.954787841460654 15.898477656258045 12.701805350529211 13.998839039404627 15.585285786997602 15.339433720991545 17.522553135578008 17.49385100155281 19.08994305042035 19.594114068582133 23.138359997691918 20.754715487119835 17.517774978029422 20.956574925430495 20.710179351264813 20.679883217226628 18.03818178155968 13.11831369496944 14.875260523752347 19.375843579918886 18.596104027410195 18.61749575079156 19.247270638212044 17.175664063169833 16.48074869076749 11.715991953712901 12.769421814958827 17.97772063422763 21.40377957285514 19.515459056507293 17.68310346743929 16.901271985155983 17.421802803793618 16.531002397686994 15.809334903303457 16.534434060891904 13.598383401759273 16.106806230905057 16.30505513304686 17.47554627791658 14.163383758184017 11.517676465308739 12.660555733531574 19.678200778302468 20.755352369762402 21.119900457051674 17.964904035595747 16.818743088490148 20.165197570070205 21.91956148631074 19.279151355643968 18.50131129474533 19.00779677614955 16.17385147760029 16.33680795540456 17.455118431318343 14.378808309951179 16.35967161691701 14.973959825742797 16.36240570492194 20.93722191307156 20.900634092572353 18.643902401813502 19.252278111470144 19.571559548407627 20.433086602835413 19.37236034394916 19.770873689922173 19.320473550928902 18.965427054351103 14.296460703797667 16.499784008384832 19.77386380112578 21.592674722667212 17.096384059383563 14.338223346346595 15.469944551078584 12.425728074805027 10.464495329389603 13.069491533955043 15.672362158849104 16.21779223066338 15.824866135520107 13.64967420101327 14.647752690351991 17.483286413860863 18.364219490302062 18.917217334064528 18.99340920935923 13.405033604957366 15.496388345091729 16.8683545563427 19.515475287002975 19.479313818413473 17.806477189089055 18.604977099149792 15.32317955073217 15.21158412676609 15.623145777385158 15.0721074875508 13.74786748076067 17.19623279658576 16.679400472880467 17.902834676901094 15.388457265732084 17.115572133210932 18.69450603061139 19.284805293067514 16.67817122377629 11.685181903416401 13.88498454994781 18.756851361659553 17.63419282396748 19.73109657268951 20.745517060943694 20.161084351084185 16.299645804615125 13.905557223038707 13.915046201018836 14.860196195384141 16.044015990787706 18.671442950944087 19.83325035235319 20.474596079440897 18.684662956194202 14.372102243846774 12.797543258141479 15.657884325931477 20.660260260727032 18.383630405209956 15.508769479316548 13.875811887862938 13.601448652751685 17.41385925358425 15.764166043396383 18.031610195058434 22.91615774860784 23.50293505544801 23.58710959207053 20.756908253358223 21.898558932132886 21.03753443524337 18.158012173782804 18.332907075961323 18.00678888709461 15.893214746871882 17.668700870208085 18.63695687138922 19.575299393367654 18.386330187977215 14.921557071630529 15.522855013487137 20.89930160603625 19.69851946108281 19.933877650839626 17.33919767582431 16.38761950567837 14.493097734985422 16.734964649065617 16.262271210557603 17.44650314140239 15.406581948469979 12.259232062699224 11.788465658887665 13.03249684031241 15.789418091832776 12.808088012726385 13.489215355274727 15.909599682353958 19.21859155966264 18.118265648402538 15.95367755499316 16.59090777341963 14.692119295482156 19.285511615162967 17.791778036225345 15.413936427948467 18.37216216125818 18.391939505841915 18.623812407792528 18.624357585498085 16.98259693789163 16.483928889416926 15.5216597717103 17.07087837921451 18.861518400935683 17.026615688498595 15.78107814226499 17.91215366806422 21.16914946475276 18.08732691311929 15.860722101740338 16.68340778011213 15.219882396689465 17.806848657099163 19.476160260974332 19.40119767488716 16.86245591722836 13.770711102283196 14.227025366697484 14.904255247068525 18.544656788606858 16.35919128998244 16.217105184688076 14.742814983580072 14.022051687449117 15.386142692077676 18.66650648649583 18.61669675797508 18.586757377708015 21.452869456729466 18.754690692320697 14.429209838495199 17.915972477868316 15.103721779064522 16.18893691399458 17.607557125313633 15.388429418945405 16.811619602049095 18.84969971362658 15.534464528560108 18.256515336302332 18.279682721542816 18.186133960248974 15.24885205552394 12.51702346662451 16.374533755168454 20.999491280213974 22.949249974425737 21.89011942624655 19.706923392883244 19.42580540919271 18.811292644783276 19.41669040568497 20.274590872467655 20.005465872487758 16.793820757975478 19.227559975400993 20.125198600597994 17.354110838836615 18.12376371794909 14.16861047890843 15.791205866073359 20.031458937818115 18.604008236122933 17.93847213680534 16.449834231459633 18.089384256590385 21.14444451921624 18.539486128352422 17.960428960727725 17.632278340620882 20.15342861330079 15.648056460928625 15.576224077580187 18.71666480273597 15.829924057390341 17.827711652120744 16.547418919147674 17.78153745529853 20.703913839023976 20.820750213548255 15.404905614713915 14.20424950629001 15.552702792398016 20.418700917374785 22.155509806807896 20.564443174701616 21.811365750355304 19.58457662458834 16.87274676595067 18.320762363721407 20.684653822261488 20.458888548160296 14.92750679867743 13.956192229830352 14.409771623913917 11.942544877296793 11.79766236493282 15.933481584304799 19.06499859366699 17.143272648507907 18.448490812976132 14.29705309616579 14.483382188158057 16.96546937700631 18.415413858472363 21.352882090651576 20.481911557764164 13.684996810067181 12.43591593773908 13.126740173389708 16.73816815459288 21.47263057794422 21.99824047307248 20.53659331750099 14.79724711762015 14.564046063432372 16.329021068954273 17.836519882523366 16.356561188826507 17.91038363271127 17.899731465021777 15.257043170617704 14.274572418948798 14.075745547869577 14.283799395685802 19.585234308819956 19.768208760986138 13.01456600900839 12.145940261055909 15.190571254089685 15.395226018940333 16.945969844784308 17.337689285320288 17.3551681001521 18.13173198206342 18.636515416954005 17.73260965326162 17.970734527993788 20.52656029822311 20.24393048862548 17.1096322808976 16.47861529801624 16.29897443076402 16.625423623394646 16.435000791876178 17.808824152216975 21.26299832176664 16.08393131060162 13.792242534832246 13.267419109454782 15.666640615787 17.62487191948054 13.723922423852201 14.291761401330884 21.559837606781656 24.14367077131552 23.239011125759717 21.20956016089244 23.05069397235796 23.631528396694762 22.279025004468128 20.898998879769458 18.98126486420954 15.94409421843006 15.815703042330057 15.407315934508787 16.55699132955356 19.32169198545776 17.429950501608285 18.15185230191064 21.36568987636937 18.182869632577297 15.101902290538774 13.547953100856303 16.57930218118091 14.345493099776528 15.532595830819986 15.919982850709633 17.463275809855844 18.813461923555565 15.649066143761923 16.286935470328935 18.152740624464165 17.971014276415644 14.651592497254612 15.576921277404168 15.753545292936353 15.93543451635237 18.37223133304001 16.02859393226369 14.032469548587587 11.893331604110154 15.414546039843533 16.39284713360634 13.977931292576473 16.588742464243875 16.871450437949985 20.48174594071842 22.105814651121236 21.62426573885264 19.019076904174337 14.975924587667775 16.47886609834551 19.303368746520242 18.21769363771696 16.79828192901943 18.044541330100472 21.813120010516883 20.02829889164582 14.78999788802415 13.185842197656795 15.920189818403637 17.60833500521987 16.811442142057633 17.384789776485636 18.786723035454212 17.51434250442841 17.724335007796665 16.744490560770906 19.468911422272082 18.12586041049961 13.970131627273316 12.929421304260991 16.57407709374986 17.797026777473608 19.3702018203702 18.279844074577824 15.502900332981431 16.204097870911983 14.475179679218112 12.104984914389311 13.428352315894037 13.655626959789519 18.6781196899986 18.132085381535877 16.78869247128086 18.462176319189116 16.846863749089923 15.578978266391196 19.432045247718534 17.500595612599028 19.880030694026996 17.185705744202316 13.827410415967078 14.924436235610205 20.447652556352377 21.80624397439901 20.7855999784561 17.45457673773955 17.847839880814853 16.100536787650974 14.521710780415077 15.96802258962244 17.774369429955186 16.326656232911823 19.07122541598053 18.890608557331994 16.17720637268526 17.869465008852522 15.274416239073894 16.434163648120087 15.760237859353293 15.042012877482074 16.642278902192704 17.83162511026468 19.988823729207297 20.49065039575382 17.434305107097707 16.54461954474969 17.185466296550562 20.973572558933814 19.611982347167043 18.797156606471162 19.297842213915704 15.127041091796842 17.998966256079253 16.300866983544427 15.540291998356214 15.061531346777702 18.418928284193115 15.32406519943212 12.716912430214112 15.049109334808952 17.055417077062835 21.391578217686067 21.029170390775263 21.59421348289714 18.01369314767913 20.005714879502694 21.166713344545972 17.478044660330458 15.425737075857683 13.58696175384097 12.684557134902363 14.584236634460677 15.254104647716407 16.13033521826645 18.28867170179449 18.246610094704426 17.4168120386589 20.111384809953176 18.359956602587513 15.84983848854774 15.532659706320738 19.240158931673285 22.17603511671898 21.180474760681737 15.988514711613515 12.143212357597891 12.819428445071777 15.531077049840198 19.752048162904646 18.365180409141583 16.202683500596628 14.40912749210488 18.020604741982893 17.1176271501088 18.83950235730121 18.002802933964354 19.67515428547596 19.379601788615307 14.574552384601125 17.06062718534857 14.282036402468796 13.630710175448414 17.76707607795216 21.131416558193358 15.384189394568203 14.6056957780232 16.54242031954265 16.15347997277169 17.846086435068717 19.720613183212844 18.82379642719301 19.03014286489734 20.056664355455364 20.572274637033406 21.530221582112123 22.614798087898475 22.36818791724923 21.055669872937866 21.17311881005409 21.321745217660865 20.715488251735586 18.80276631541782 19.73226088708621 20.676085350578294 17.363298912414766 16.82876282764712 17.39656278456544 18.112316498483004 15.29134186093033 13.722116845451078 15.448985629750245 21.901894415063616 23.749621945587997 21.4106211271146 21.202917703385943 20.569637229602556 21.747569154798168 21.19265040363152 18.096602991682257 18.75678760008919 17.306492896477437 19.14198433542205 18.9023121158079 20.389513661497595 20.748092707690166 20.66580546130255 19.96769875329046 17.28687394529117 13.945998120404564 12.886472146945191 13.23210958085479 16.3498234025529 17.609962173026695 17.606842331272553 16.329079176875116 18.004273333538144 19.110306286419107 17.96423166410967 17.936649272114888 20.19152218388959 16.336351712768803 13.41231095683499 14.822908412905843 17.915508376742665 17.81145408928876 19.240282479706966 18.474033479681978 16.941314906459233 13.962365976448908 17.488747043141846 18.915294096786454 17.13463072784458 21.364243427049757 21.54457361445638 22.41352269805292 22.259653705628292 22.218135065196236 16.99148819108488 14.712441479112737 17.094577477432708 18.737884874880585 18.087949704585846 19.729010709940862 21.553211478687643 21.266223686623672 19.239853564551385 14.755080327368958 13.08792154338045 14.378001591045347 15.481619823014944 16.243159927562793 18.018705436778152 17.33102710618913 15.518527663045626 16.378505085655963 16.732792596425085 17.929063795919625 16.332277836326412 13.477260598544863 13.321679761181773 15.436880394525478 16.864559975075682 17.241356123599115 15.909534816600756 17.929292078049894 19.29220267136767 17.703497174780843 14.48835366560974 15.974776140675772 16.708711809409998 19.85829707791773 21.026043589093508 20.626875903825734 19.34661974632551 15.993808912913645 16.55662983638988 18.270705207811982 16.548178018066068 19.958287527446096 20.622186248733723 18.74388054829579 16.535025707693602 17.78947678486735 20.686923218422987 18.307238587256325 14.573692205675528 15.483843738532272 14.574840732063233 12.859051765005253 14.4180917237028 16.08246891650262 17.094765782303966 17.177698342048533 13.739215737704605 13.461126228267434 17.44897770631668 17.78342297913272 17.053754357568547 15.013486945745864 15.18779998523256 16.630638277453503 15.75299379842873 16.656397603166763 19.647699860547466 15.797625878479273 14.322442420182135 15.828956228179711 20.182844437782492 20.55055068359928 18.619561076689756 16.516604368228762 14.894304464320687 16.7844934277357 14.656225626586199 17.839943724658898 16.663654414493802 20.246899341950822 19.257207619133595 16.048767378610798 16.217038721559252 13.85928564316937 16.6812578337267 17.565347211383152 19.676228506306064 18.14035629948448 21.878965226266732 23.092646428418757 16.958500378088498 17.04530484620994 16.621385602877172 13.704251817730995 16.96271934893525 20.403827190472825 20.659289786522113 16.576227807817 15.21236678105998 15.501182703460575 15.90424970299496 14.974147044473188 15.823645838570688 14.538714622409998 19.943535669145763 20.542931655006285 18.129087793615774 17.333435648641682 13.520104414459173 13.183681854367334 16.987962210051684 16.66764276136454 17.133693521100913 14.404199545952805 16.51857759591282 19.704727567464563 18.843076371428616 18.29483438574648 18.348019221807995 18.771245183081458 16.049369736966483 17.826031583957114 20.487826891935317 20.189681811714724 19.451217510851944 21.269905821543194 21.97693366285787 16.17549066988819 16.44808286161255 16.081396668715332 13.360952268826509 15.261558815699203 17.24317891113965 15.728522847361294 19.082513194565294 19.435724010296347 17.668502797061823 17.855000541448657 19.511835862773328 21.42850163897864 20.605419665432414 18.922526187490853 20.498847614040073 19.1086952538321 20.917287326263153 21.030783490014002 17.24742539881174 15.286783231749874 15.171533789773395 18.970753685576565 19.240359470558413 16.931663805387203 14.086567765620298 18.17571720424249 20.023184210243002 20.48542226449671 19.012138425330676 22.407548446396053 22.579515797561797 22.54678899387623 18.980468711242878 17.089708351298956 18.387861943399074 20.322210576425526 18.645638910961086 16.1302863644919 17.354574630023063 16.52009207436039 21.555424807483284 21.76822875478481 15.120709898443641 12.674313027465445 14.36401708882875 18.165198621209136 18.15878951282589 15.936712455455755 17.829891049781626 19.839223745109713 18.86004778592451 16.725759240488227 16.873344179956813 15.673859350173752 17.250256816836345 14.841408028460837 16.299573104641905 17.852474317561864 18.247556353737597 19.712321599892793 20.41455434214407 18.050577505729397 14.392120761997239 13.334489646547919 16.89611941142859 18.634825127209943 19.949544206388683 21.826541399019817 20.79601679124123 19.980756161201057 19.523008455082653 19.897580575602767 15.227508990231494 15.89678919170802 20.37464326178603 20.651761798701234 19.61684288400827 22.560525874800483 21.622959644280947 19.33356672129775 15.100993603347474 14.495962743648116 18.54262969319155 17.92612004223933 18.00922770557833 17.69371619422768 19.834273851296317 18.600902879356894 17.882215276194636 18.13427155132741 19.533493274527856 19.501537044495986 17.56905143116681 17.03179887113519 15.289754185424949 17.199139830365205 15.932344263918145 17.550712634542496 14.577473780152802 14.26325248685162 18.06581899923143 20.762196012217085 19.910152947043127 20.474155302245357 19.47282970124802 18.806709008417492 17.512480775595602 18.957711682186428 18.786875720848084 17.981643548785016 15.08509432096721 15.611748609374647 18.841602849306756 18.317410249830807 16.28574207806156 13.409326729804544 13.790639098947075 19.53318113295518 20.750193855703188 18.35532512381671 14.685266631934676 14.843341386888785 15.225871720336631 15.176054269100502 18.393648419412745 17.059785986577662 19.771493010793613 19.196927902801395 14.667798443355698 14.808055414353847 15.492284623645482 19.47273193316802 17.531972049576844 15.037546510524804 16.87175528773985 16.120206826649763 18.131402326610445 17.333278748319795 19.315146973246303 16.183938107418765 16.391091277844914 19.706302229785994 19.2243882827552 20.690547649876816 21.396815852033402 19.977511580939726 17.36179510900632 16.747422098186423 13.418151159476558 16.6803344012276 18.089631733811405 17.485801723152505 17.349826138543364 17.54461525099051 19.282937578622473 16.515945554739616 18.087776711798096 16.63528915820829 17.007710890842386 15.858980549529166 19.791334391012903 23.39509405979809 20.228064993305935 20.4384433430642 19.566225911138897 14.855380271022685 16.787335442174232 20.05291642414731 19.5948528104815 13.974890151463871 13.897810578383492 15.079608984682029 16.377214687716755 16.841191067707726 15.936204040343332 16.067275512316872 21.68792193448048 20.10141435327296 19.29586211064642 18.228918297453966 17.007263639533928 15.028537174873717 17.331834401891122 18.043173836921802 20.588446619879086 16.12774673636142 16.334001083650463 17.133969580439913 16.1801718187521 15.975982169493856 18.735334403364142 15.502908510949565 14.499066337883166 15.973779875354456 19.533882573436557 21.342453465850735 19.74282493487222 19.839277269509314 19.834724223242247 14.161660922020756 14.526081941588489 15.996286974373835 12.47779330458205 15.406341843942169 17.673677259331157 16.275892838596707 19.307987535822328 19.26769256963483 16.931789337389812 14.562821284393907 17.568311635955514 18.83028885619474 17.836585238406666 14.98775265246114 17.22305764385947 20.40189292763714 22.69472880155326 23.65976293482515 19.22875713909186 17.437073474334166 16.508613963255264 19.404573349758852 16.458772306578158 15.947110105901842 15.164594422763514 18.078633635632194 20.727534617227196 21.2817217613562 21.474359080886575 21.127240679468493 19.19330534912654 19.291746420020402 16.234684532989135 13.7757696649008 17.153349062203418 20.79944319320144 16.06071692806455 16.76685534860387 16.95731638231483 16.525649556561376 19.08425730936001 20.149342106400677 16.155780338287485 12.595058840994136 15.274492365632405 17.618474776952407 18.5926433529294 16.247645562229586 17.243417432669304 16.566495758012522 15.697859845374095 17.827859116758663 17.63670245047065 12.936310145469466 12.568863678522614 13.158569098457145 15.655515395296906 17.559801527044943 14.779277916907079 15.042252803441064 16.7675985230007 17.63529019362415 14.551173486467931 15.237666615409829 16.266220042158256 20.181078365570368 19.173863234217997 19.3751289667387 17.75620673523839 18.90708497252115 16.999157419404295 17.365782335380565 15.634977768768408 17.432035886078534 18.89720659318547 17.330585933808422 17.686318856028933 20.647727844135613 15.680517657973736 14.183648881088892 15.543530267401232 18.279698533351684 19.116049241806856 16.26221435802258 16.832623008686024 16.408151157769762 19.697396091008212 18.024817525346432 15.453163028934327 16.210914208501162 16.985750838041117 16.37193932031273 14.965220844022804 14.080864254637012 17.896083560928613 19.280430816727936 16.402062359376036 16.651830853961734 12.932766833473966 12.175650091534862 13.323569502624377 16.584771196585063 19.392284657606343 18.6169503857434 17.756090843839576 17.27930513062196 17.02398685696903 21.57257905078579 21.549752338479724 20.50536810054354 18.221506512163366 18.276662869069543 20.862526193028483 20.506161029890823 17.89255134338347 13.338349758067963 11.899287797461506 17.189320917455312 17.635997806893496 16.5636052444238 17.490799678292593 16.49662851322681 16.448875746217748 18.751927465026657 19.27460943990668 15.583835183671798 17.420960477743066 17.90760516301603 18.53196982909283 19.264778691653873 16.193661724062267 18.471876964237268 15.613718912203687 17.081148414904366 16.79378840952163 15.687390727515814 16.236725618594242 19.18346072892549 18.898379565172114 17.508648524183737 17.141846924810263 20.063390652868257 18.744495215542177 15.85134351623862 17.862976377635345 16.030122275691202 16.536319801274438 17.64182365037658 14.248697584370838 15.307149182080991 17.701045834217155 15.743905209542202 16.45766234220635 17.80650148802768 17.732669199388916 15.641077692704545 17.254204357782225 16.728370510628675 18.740045573340687 18.439304346612467 20.81788361878869 21.823177754153118 18.6146027236135 20.904324883772375 18.608654416706095 15.699654467767356 17.177860104261136 20.38727451462238 20.138227469571696 15.835394101446175 17.38534892529343 17.91764509055106 15.235851364120474 18.06175312159614 15.217395570853547 14.109745679443146 18.25397319981509 14.732487301807579 16.60809684490507 17.95232130417357 16.850602724143858 16.351130747245897 18.5725847440819 18.047322716460116 22.03667826955432 20.062928968286347 15.869243144445988 14.979349649696488 11.765216393364797 12.8540764591523