# vtk DataFile Version 2.0
Ocean Simulation Step
ASCII
DATASET STRUCTURED_POINTS
DIMENSIONS 200 200 1
ORIGIN 0 0 0
SPACING 1 1 1
POINT_DATA 40000
SCALARS Temperature float 1
LOOKUP_TABLE default
9.458867138865763 11.50743375040557 12.179739563346116 15.79817260413308 11.040656605059745 12.71530653136835 10.555771565434933 15.510113117715159 23.942386162041977 19.76084961477308 14.684870260515625 12.223708305671504 16.002123035141338 20.52677845476068 18.041096118143283 23.47364050833127 19.115469232257208 14.70528229208128 20.371361106960833 25.22961631477564 17.200619889746694 14.670414385125486 8.715813922173123 10.1869670538122 12.04768152373895 12.39429655116655 18.225694277181976 10.52964357080116 17.95342645055538 26.052027539186017 22.822938335533074 19.45831384294456 20.27612037313186 25.344953168921855 24.041844386934592 17.319228861749522 13.36973866241414 21.773990433663094 12.187964469101871 20.25019203980783 18.056304623256736 22.1579079263578 22.799821722501484 15.91311481202393 19.600977236484013 24.847316205047083 20.471353367968778 12.598306201442886 18.289558699188383 11.542329062330698 16.184412958654583 13.873090754524238 17.70788358409133 21.77780615097668 23.276642826982094 25.324937039406702 14.768232549842335 9.669192965427229 14.720596710909389 9.144277315532479 11.642865035557339 24.84876966102934 24.47531047870551 26.463337482297877 23.279894206152566 16.4670667921438 25.280163800236938 21.2261557185671 17.071546717389964 13.206418508544324 15.779224959702573 21.712796988897548 23.181883224575355 24.445026680020888 20.857868759339908 18.49749458192055 20.83760327872147 16.604716210840873 10.882034710832077 18.45425589248001 16.7522711417704 10.696539503511028 12.974682906504913 21.375008056132877 20.133383597953937 11.78825523830511 8.97909899008024 23.250156725205386 15.020571249328297 12.149832247486163 21.266808972424602 12.718805466105113 10.20414942202591 8.782113682541734 12.542958770536767 10.042720524192312 12.213064050408688 9.929431829854302 14.696980818943741 17.3345799199699 12.183264551126605 23.41415182883227 17.862467551975012 17.32436450955508 11.918239261240375 10.33057368114594 13.159346856819612 15.516626545018624 13.809369136348673 24.05395315391154 22.759691174256794 10.128787235646863 18.04737311562721 18.103747698439143 9.739720845075196 19.965314423923395 10.418489270199261 11.368504827833624 17.95849733898574 11.866053065065868 19.915313060416025 14.43391339608873 12.813767376564538 18.506389721326794 22.465039664482866 11.81534215083039 19.797932242888738 10.813874716914107 17.919317066977335 22.010440894251815 21.416466958909332 20.705097301639736 15.583707176895741 20.45845582164713 26.74417329019653 23.463808833258707 18.28830341300941 22.84219059971396 21.208392557413777 18.616859887317478 11.818401124584028 13.658778520350937 16.116607446715207 24.564786004797366 19.806309851768642 9.510147349428035 18.323496741247556 23.93154815105483 18.48503360198177 11.637675899510029 25.132419036193216 22.580689423769922 23.95428280239927 14.447677061289788 16.46467358515943 15.380736458361454 19.450692002322178 13.924156925112888 16.44988916562111 10.75478974160379 12.5894067026437 16.250061557058014 9.778533358978212 19.011052586620757 24.89611210426415 20.32673024248851 18.039335915789216 14.243451882011911 18.47626192694599 16.00545096800263 24.051815538191605 21.277792380787233 18.37482216944839 17.830785765682776 24.57763726518201 19.17696156048291 22.67194370069841 13.758049953945664 10.863217328634601 22.756230185417632 20.277055914554694 25.873472287433735 12.106418250918296 9.592785328635507 12.280160145073765 23.08229508824383 21.81550994460858 24.333765535646776 21.12283308983619 17.347247424949305 11.888906517608188 12.306032477048017 19.612451458155675 13.704835679617968 17.85689037984206 10.951093897868015 23.196518049594438 18.514014976209527 19.630532896558954 19.8142897715116 10.06708543928278 8.824260662393439 17.61944843845823 22.3864249801535 19.454385934992317 22.34287473605058 16.919661301480552 15.210646421538819 20.612898577899152 11.414127064661606 15.413462758092475 13.652780941772932 17.934675043182363 19.203604869148144 11.502742069570251 25.35638953636494 23.862903272914032 19.28503515509684 16.55980897200679 26.57189316507592 25.929901647196626 14.775740176898914 14.205182837509941 14.134557929656966 10.979955985524477 18.33642720414436 16.467749783906708 12.503783098044492 13.800583207548131 14.827632011647431 17.583147089358167 14.282129145043243 24.032112630642587 25.375486700308425 21.30635416923492 23.930596339006495 11.647318985635255 24.740540368149713 18.17218342760197 24.128557342060432 16.9309371830725 21.655668183256594 26.523687967866156 24.313231908129666 23.34582130971766 20.464987400156375 10.6886288735485 16.2676101692013 19.7205391381406 16.296266974209843 21.190823325335238 25.331001833163647 22.71518049282168 26.27511839067587 13.977255559661995 19.300576246384306 18.532629413891947 18.173211147204917 17.266120744048784 15.489008374460274 18.735380675680453 26.00306280669105 22.438044749932427 17.25585792652713 12.35870872633309 9.864428409875153 14.910079386628908 11.09073928072031 11.942801100884354 10.782718109117608 17.50523595874554 25.59529626591624 19.716414489922723 24.114501044487977 24.60220806388172 22.62662391592945 24.55380847072122 20.707034641662943 24.112529030905794 23.195088910203005 22.371498720373133 17.60977690207041 16.61756872295853 15.627494257738691 16.1223819546231 11.015310874858887 10.528284703390089 15.778729758666032 11.730783142905281 16.547593664661512 16.382780884882717 20.448788766869896 12.851509073015873 11.09083159249769 21.048246136386215 20.325420154880945 21.565681055842305 10.512761225868028 17.613176457115053 10.184105072435507 14.729784711080805 23.821226766212543 17.223395894045556 14.012098124935077 10.39784558278337 12.212319345667739 13.352890836320869 25.824994071304708 22.776870677828207 19.28825719966161 24.468223242977835 17.296809009855533 20.825003822886558 13.895114397436565 10.008272712123475 22.288770668575125 11.125500450052918 15.094667564785532 12.041785789530506 17.641165437920943 17.069851927218533 9.779737603059077 8.191123747920917 9.298229219669972 24.689062886581333 21.12154840930045 24.04908791656752 12.17786165431867 10.08958091868932 20.482094103921774 11.728489209122575 12.578578064605006 14.481237840339993 12.189469943820109 21.916631003676436 18.50716016062701 24.562551369938188 14.628428475403386 11.45500201427549 8.588542343669694 12.504458187121621 18.429227348351212 25.620246575789697 22.92116567657798 14.092985331434628 12.40989976693715 25.843842056729052 21.663065546494014 15.10154151925594 14.31958255717953 24.420011482473747 19.500095782271487 24.871760422875788 13.602824425814545 10.854463159741963 17.01284199604235 21.614693331664757 22.61827184793443 14.150617801607808 22.304494905540196 23.671985020683657 14.944903737965143 12.00958196732171 13.321288025826007 16.872963967365983 21.257873089719038 12.392647198860134 11.619077228003668 12.084991764771374 12.767911027077641 24.07028287759753 18.44016311298483 17.755198602106503 22.704930048435727 23.922710055176577 13.020628418052837 18.9592489172321 23.9387668818854 24.012400045525574 21.266219394338705 22.476070208942417 24.40084200061479 23.971358708465765 20.145352721982256 17.182128813391135 12.490415700770567 8.506556153863425 12.7793944019649 12.981495324824898 13.66318986835714 13.418774208906463 11.774263713947024 19.490209575288723 16.603261821209788 20.69513878561569 18.72290260534553 17.239365584010006 11.410379012755998 19.374585276055754 19.46530580636242 23.492032876996863 15.318386892481463 17.25701377875072 20.009897029236566 15.147543842271851 23.649348643926754 12.23050537522422 21.405150048787156 23.623472603009812 20.777168504051517 12.34783743107552 16.488187905409376 17.37751671559171 12.34017187432681 10.930821680924097 17.89316549845431 12.422013189110714 18.826143928546923 18.946826833040543 21.66945390423371 22.36592313593321 16.252055858750055 15.829620837666235 10.397688594518456 15.852938393034718 17.44935889582876 12.280596069900092 18.865334553505427 10.755423922309053 10.788270704224137 12.887879211771061 15.516648569078539 15.153835915936027 22.527937154342503 25.597770684001947 26.387655034413676 16.217171817933828 19.166476407375153 25.86588209396457 24.166183350029705 23.07740699476657 13.780835547538999 19.25449399409449 20.802425044430954 17.15152916403609 19.001267859702725 15.032370483727782 10.19565262916328 19.424932592175455 18.24849674057093 11.208349385287374 16.197578681117285 17.65282112564541 24.96228364832212 17.881020999971163 17.807180049250942 18.91149577915272 14.896077992999624 13.960971740126352 14.107910480502698 13.98464443896263 12.48543764174891 18.409390304930312 12.385810144039096 15.849689617375624 20.935505735806803 24.96635985919756 13.738998247451295 20.34101149328286 17.151224072574134 10.50131377086113 23.64969666192136 16.988113277580727 14.536136938092529 16.865264962582703 20.585655452192796 24.559255858659995 23.825237722815494 24.47016092552645 19.490807697300205 23.440689465034374 16.928268632339073 23.336099817861854 15.675410572445811 12.370448215478255 10.35752098637457 17.098242462239615 17.465080690476942 18.89386168675518 24.420647826139867 15.234594302172386 21.77269566209268 18.747223646590964 12.662111561209208 23.911984419134257 14.806940081053307 21.66879293530266 10.985375872194906 17.566700180357582 9.22709938454049 12.597587687601498 14.693077338893342 13.886880479995265 21.55914688883837 17.25261379017836 22.661320246151984 19.672777575982945 25.91127597201733 21.26154136435216 14.893637247827165 22.46369369101559 24.105676543975317 24.19311692727184 20.351402533313813 9.860222232215012 10.647657443782723 24.461684526905707 21.144988644330663 19.619892196383798 22.163662310691546 14.899809161271964 22.069773943307386 9.740232133673118 9.806563157810185 15.44303674658376 23.89149008687882 16.751225956895972 18.299069750830494 16.695659269138872 16.912228389618246 16.139917688715286 13.14498497887389 18.028599462432023 9.474787650576374 14.787220623817388 12.039721167291988 19.185334345268103 10.693094786866329 9.470644519535249 9.003646210187052 24.606528114541714 22.032542015747502 23.318571138856562 16.448157080071056 14.759954624228207 22.206668228033667 25.381226853693224 17.41342266887393 19.414220621569 21.303262809883343 12.83387377606026 15.61623350952816 16.804135579641393 11.023630299208541 19.471357203923645 12.489060458328174 12.333120068012656 22.901398982205958 23.144394198565827 17.998371648149945 20.81431057774555 22.534749914566266 23.6824206692446 18.246151302364932 21.441535018779216 16.606629772708942 23.540094496494444 10.332326727039582 17.1668332442831 21.257413074194755 23.898740301426994 16.97497274782738 10.909486571742244 16.31654871025095 8.926070428374523 7.176410919482421 10.33802161548225 12.407617246544993 14.953965446592655 13.48881744862118 10.004510034775771 11.0110706681877 17.046995588204584 18.61180099416082 17.9365083047536 23.290216067572835 10.105736777218992 18.42993775780691 18.467178923215137 23.935115616287437 20.94735800814269 15.619227571565757 19.560327729583427 13.777969666499175 14.31683387418467 15.135518639095496 13.54394021553137 10.43519773886865 19.149554381915422 13.473929396655736 20.131746176574335 13.567621072354433 18.55017502804239 21.041872332516146 20.9844233022844 14.305009554821295 7.6323283036025416 11.60546739551039 22.505433307038054 15.569079230825258 23.716452604839194 24.172869262191284 24.303619396422835 15.532632814879243 11.544368309640898 10.867421746715541 14.717061984643772 12.102864643522675 18.745007893415707 20.80491613995877 22.83238424528343 22.382684644552498 11.739480313885075 10.040297092186552 13.953837330075558 24.44813599610191 21.486704393394074 15.003207650820395 15.332958053567145 10.733271196124113 21.332668658556724 14.677493509834283 19.531891566443015 25.558054381882613 22.006674957814727 24.772320726876377 19.999190658585466 23.014150434324197 19.788242846481648 12.71725212177923 16.187208215980206 19.86944714430266 12.431314728416917 18.325806886959995 20.276463830465712 22.554087832003688 19.929512822396028 13.654522351662626 10.716015069964419 24.888313581653726 20.59507892157536 24.72944128427192 17.93493220673387 13.716322052039285 11.726107131994034 18.95419836982987 14.132935373831552 20.28384120338559 14.212760238787588 9.597428462034644 8.77503771607877 9.328440116029942 17.25942755783989 10.01276669757978 11.15578102819199 14.188166894522762 22.28988294233423 19.188596472236288 13.120715180668526 20.196997385709423 13.013591551789066 23.331247248127887 18.530401485920756 13.306563895643956 21.35247418772303 18.736494728546095 15.889502768749878 16.673286312191678 11.90972072792697 14.610117047767297 12.642791012216756 17.339465331198074 19.159767646685722 16.47700434414202 14.934852499190976 19.89851807450226 25.511626878193372 16.24911256599459 14.164443651791803 18.614100293977135 11.795032405761628 17.00579133893986 21.89604456894035 23.89666147457757 13.91638201452005 9.79363537009117 10.69011113691432 13.752643793931746 21.768773054108102 15.317251483787398 19.604168265240233 15.439883175433849 11.348885578675711 11.67753928169218 20.788458734243996 17.341151889608636 18.36346338540711 25.396061165893403 20.966843006912686 10.17819768864424 22.950923654181256 11.32022347332013 11.80761771410861 19.510986040562347 14.904634951055169 16.525009213440043 22.16994738931427 10.631493818526579 18.764559610578807 17.883940152750448 19.31133144128836 13.222158931903914 9.941290931378893 19.65276290107484 22.9624356140381 24.541563396529927 23.688275547495724 20.425359842528863 21.065805075461384 19.47461406293052 22.669655233304475 24.49194220359307 23.064619813877513 16.150494332198033 20.869086786404726 24.459008676383124 14.696559830222144 23.241899205868656 12.365491493193453 15.675150608108252 24.4205106233629 18.364689140100207 17.564987375923444 13.869177882026149 16.794054165337084 24.75694255660845 15.332408447848355 18.891449026401624 15.421417267144033 23.819409482952278 11.735705738527054 12.339920967466249 21.999615290865446 14.906577637588276 19.33594522481138 16.061793937079376 19.185404440053265 24.333006588805336 23.936493004281843 12.059269192274567 12.854329636324982 11.540681115690354 23.310580051885943 24.739542363488358 18.061032556848513 24.802832062103782 20.646431263971728 15.135392719404562 16.785126506242154 23.37806820323927 24.8717670371163 11.948783644191241 14.858130758096342 15.441481017539598 10.068378771292199 9.45514016676281 16.328784601181006 23.99037214458903 15.01104585608281 22.075068523123914 10.23340337078918 13.797568329186326 18.653834579602325 16.66644562760124 23.46630840075074 22.58925156009272 10.528132065833308 11.178342113372821 10.381211459423508 15.13265849923702 23.91413422543404 25.93055111521625 25.193049768281778 12.725349896468666 11.571916050642095 17.005516774525855 20.070823981126974 15.711215214136725 17.850302895795604 17.124546535918824 12.72271695044699 12.419741024647985 13.715593665355415 9.996549857840751 23.240936926013507 23.37053536867252 10.633544604322372 9.449558509460765 14.083911558888346 13.838245601518182 15.672660392408941 14.254774202544775 14.327105400520633 18.973834873971768 21.07094688540467 17.690791404421258 15.879089385480162 23.315837667701654 21.398462764927068 12.9181770077628 12.530239868996004 12.32203782132594 16.37219282272198 17.35030196249063 16.388249514475024 25.48509456304426 12.21053389154736 11.547562036029596 9.772664337656408 15.658071101687119 21.95654120622 11.022484395164387 9.389072088828724 22.564097774857352 25.59053998371687 24.400848713415204 19.16122229348294 25.601966831998222 26.240253277211988 24.364854409091333 24.089080495113606 19.300001404552205 15.220748579190404 13.737478299726206 11.96592218283178 11.718877945459955 21.570648355689887 15.778710306869028 17.505429156503684 25.91166965562231 19.12805805346452 13.051214850911405 9.986305813639147 20.90573630165763 10.612534931475382 14.403564290566644 16.1847177078498 16.31670339411946 22.604015523688705 13.913905458798682 17.516289559747147 19.75339432535724 20.913347816412294 14.318962264629294 18.380827301800835 14.693501154909944 11.885229187046239 20.94599975413635 14.963374271672375 11.233234910873014 8.194216659659192 13.476862595740913 16.428117599551125 10.622823288547561 14.875180718900216 12.138480752277822 21.818443716783836 24.346458252450955 23.891379360541073 22.46582656899114 12.69969755364425 15.464231317702712 21.59366428846823 19.31618603535853 15.223337136610823 14.39044664653554 24.306387765327923 22.592446156849267 13.064658346828102 9.82064424418351 18.547252929512037 20.059247984582875 14.928317902815543 14.705464639241463 22.1990778768276 19.77383829523885 21.141391157826156 15.445959055522504 21.76153852979789 21.342942813919258 11.709301051912915 9.50504927323536 20.520611496165568 18.71693171848381 21.206859367406352 20.98402607908211 10.746085134075237 13.470542147908093 11.65687133005567 10.28491696535946 10.999398809287976 9.767256091178444 23.279929340635018 16.313225089677882 13.742688266997163 20.71773254234357 16.302141347313356 12.698140420116774 23.587574049375576 15.141588012122474 23.02585845189412 16.43820466979158 10.362757002983278 10.79265960810873 24.28120464701934 21.410322092110793 22.576459900053642 15.848267781906468 19.216633988664988 15.607832869965012 11.773465803779951 14.422371999382921 19.309604618925793 13.40576012060264 20.984804017441615 21.77023241547016 14.974346109714908 19.358739720440205 12.566771476061891 17.992141720566366 13.690589822975973 12.815844119385124 16.12232042242281 19.516132360084644 23.545496641379582 20.68222980534526 17.275071536237437 16.757207350401814 16.674305744813314 23.16477896003473 20.702237792580373 19.713878465292517 23.636896422090814 11.002890794663081 20.82767044530062 16.993923136311338 13.11418025867929 9.876772024276523 19.394022160933083 13.656523569324284 8.785585401995684 15.85518082482669 15.492673829239745 25.389121449101832 22.0079137467392 23.95340550215023 13.983158825283526 21.055660287368852 23.60465609456073 15.914410864279272 12.056791930013135 12.157868566350022 11.005616559740693 14.241259662876832 14.308404010797448 14.822040895122825 21.36395574424053 18.784878573911822 16.24063028751616 24.196073781092952 22.8908936645135 14.936982200754175 13.966562128690164 19.561584299687116 24.086838146335054 24.774819277853805 15.77953721597639 9.961909871790366 13.20543055298808 12.702682440266644 23.720542789880646 16.534057489580917 15.484495754841728 10.468685671047254 21.96505705870124 14.178463341274796 20.883368456397353 17.126505162531398 20.79313996367433 23.975082322266125 10.526782902262203 20.368827996717798 10.62070402404897 9.795358284363717 14.630944605129491 25.15284036918153 13.958664385157114 13.61985279003856 18.594240239911393 17.0291924904307 19.110522430434408 23.193627636336657 21.11591573792663 18.260494866940732 20.466825620933633 22.82955401244491 24.473080375345226 24.759256098629766 23.210303080404252 22.166358044648756 24.691145824567933 23.453515361767785 24.619512760656068 16.70410534372015 19.809378601280333 23.813656868041075 17.679736597587734 19.260673891611326 18.085256843929884 20.37043770625891 11.525350132805647 14.091440802202818 12.29928464016665 25.169473352220184 26.53608461734506 20.816060402922677 21.339693065129623 16.958348533225955 20.530277045987205 23.431894006209735 14.317293700919434 20.78153951697471 13.991778884874648 22.123686227741377 21.19094334634233 24.025068597274874 23.381151631325654 21.163873063771206 20.25043663625853 16.803800984716975 11.8716565606742 11.90210022675242 9.628768894880691 15.488794715266165 21.45137198353328 19.27984125638753 12.457807066199974 18.047347740269203 21.241922983194197 18.93083149418358 17.763538210569767 24.75447387796627 15.478883629570719 9.75123695586205 11.70111488773135 20.96495481377319 16.649978330811567 19.13795339144564 19.71882476472825 21.063883797749387 12.384368341661325 19.558811284502767 22.180309704214878 13.603519636087828 25.467803710803302 23.35747985753642 24.587038332283743 22.346750860392675 25.398056504668492 15.250129601991272 12.974159802626406 16.090340473691715 18.22034010532514 16.250615287463784 19.301099132741374 24.224730277503376 20.95428637908903 22.2369506598623 14.707194230000596 9.25880557372188 12.377906744785928 13.302286233157973 15.284473844180734 18.994411948633967 16.47025773845481 11.76953980600121 15.37042445953457 14.945348910375868 17.304264868147385 15.466352633877197 10.176651156059455 13.266352869568179 13.51031210254961 17.92081209755067 16.32411795754713 13.03999676751781 22.29912121316416 22.10059137846455 18.329117965565427 10.92684741789271 16.00188565733493 15.923759354665421 20.606493530305674 24.76968280378762 23.47356008456378 21.017489806494144 12.19223879216798 18.371412814520816 21.07592119195817 11.79733484031386 21.807772735754405 24.812962929924108 24.064802264539466 17.817317231909644 13.206698274728671 22.974211752655275 17.306134204795946 11.769796785587967 16.03267565092476 14.29810930546188 10.78929936743658 11.904267419125494 15.569215849737235 16.604692745625265 16.817050211140412 10.117599384249472 10.087703074121352 20.641213528661947 17.946008498836697 17.32366184277466 14.663858785146 13.62685659287923 19.186719541673643 12.015138927877793 13.681773540820126 22.860188380877574 14.052533933228615 11.926029354438187 11.59348055456476 22.59178483934496 21.260255170476626 17.031516866323912 12.60046062639531 12.894580879415967 18.396969114172858 11.491596370064137 22.67719944913204 13.66028779423185 24.385528029473505 22.88543045296573 15.390452756325152 16.694081042320562 9.190036376721997 14.70490952249071 15.749976712927705 22.048663705608178 17.267039405262672 24.604629214383092 26.70259111286829 11.711863312266463 17.407534100541184 18.010727488581274 11.068596615283024 18.13262565848088 23.659250942525993 24.933793486847335 15.41897434933573 14.059662068831347 15.741176842386505 13.960323392264065 10.802555055477807 18.25217145502572 10.04189912014233 21.443501749044906 21.105676093067036 13.924838428525769 20.058506037785225 10.887853677692462 10.742115288515349 20.820834511917212 13.100693815613669 17.045190265788943 11.091675864331357 17.71014717804761 22.567137542103065 20.453591262845826 18.59907650690744 17.082000381923248 21.947746885376308 14.304821858290572 21.205742829141954 22.626026628950672 22.158998517264596 21.020538828314066 23.935392589727392 25.240286046061005 14.480324897021955 19.275555516088353 16.400765388441208 10.841640070940729 13.941761588271223 17.64555463940576 11.323009498482794 20.441062607371666 20.05207301756266 15.330860815882343 17.67081864130295 17.947786805341135 23.436366744052215 21.948798870106728 17.485361539778776 23.63884300215367 14.39043309842283 22.10316038599151 22.01218174916886 13.762805049749701 13.622071059700401 12.156379918073503 20.62724982769398 21.586254924517945 19.11165467730041 10.142692119156653 22.179079686940042 18.13364467621277 19.763055904727775 13.811663748773034 25.32349483994206 24.90983215383619 25.77246107385604 17.57144494804203 18.040813782588135 17.82970146138363 22.89116591325823 20.459913962759344 11.907086316217928 18.28043313919689 11.162039665037348 25.537490261158307 26.094264873177785 11.161618912902512 11.818236886260062 13.332148673273819 22.80770873273509 19.06938673496094 12.75518547444702 17.494833676844582 24.680369785840202 21.454593462145997 12.768814728923331 16.898647793198766 14.6287038290687 20.13594226139551 12.813784345347448 18.47347061796315 19.62699303126461 18.876792961784357 23.141940007482024 23.608144124573418 17.70191043705308 12.093151923900564 10.250012742347405 18.742594206801634 16.55646354441975 22.217104310467548 23.48610394343941 21.76576960381285 18.283501044506142 19.011425799067798 22.51506851142728 12.408246133692236 13.792221606724842 24.494324674427606 23.880544294465057 18.954762590645934 25.671404192279276 24.349982028668723 22.30551532504316 10.847635953682854 10.043969118150665 23.587791549317174 19.521406761881167 19.681313917336748 18.003370795906537 21.482443780472742 18.595665230784824 20.538096025054855 18.687316465995814 22.563493213273954 22.437516400487414 18.012582898927807 22.165300579173316 12.114714225764002 19.24504098977662 13.505650801777493 20.869109295740778 14.216730624937245 10.736514455396987 19.997086963834736 25.461149069494287 21.08139670209558 23.565308847577494 20.95878721991218 19.586858315993016 15.026096414113873 17.41290953351051 17.12291430377809 19.575652984244545 11.609095109058815 11.680046701145795 21.72249488557724 16.520607264877743 14.038808319516937 9.784132303909939 11.196376771017635 23.64605003920051 22.69332449323314 20.74156940066066 11.747586466583536 13.922316320825788 16.011683372636167 12.282991001595311 22.42754520432513 15.73929128179465 23.717514693460544 22.6712218440759 10.908594991925757 13.976721133629468 12.18738754761576 22.96872576747652 19.33590888570045 10.976020772342354 19.882087626728485 13.321305356611859 22.945396637506732 14.302665863614331 22.159583883327056 14.194348015878038 15.992266856441132 23.847196062281444 16.295554077279487 23.72234015238622 24.360153286153643 24.459285487154922 17.39739867210084 17.620840443244045 10.068572579586776 17.67937085775428 19.78573850650233 16.56486783028104 16.824899478286714 16.926234431776173 23.390579544089178 16.09163925604847 20.8459740252729 15.589888036098401 15.445923951211379 11.939405252294227 17.873267139758166 26.581240007855854 21.67163924119649 21.053735032860562 23.065983871336847 12.285646635019962 16.181459632556294 20.21774012698774 20.434456997505215 9.941354407555512 11.784841526367577 12.782026901544834 18.622249701721596 17.64542865093488 15.718073668366149 15.378557210740503 26.458297539510358 21.51485485236946 21.929238687289537 17.46458337140849 19.867440933019335 13.2096916967336 16.716335574057435 18.289844585629492 24.919118559751304 12.337516029353948 16.966162318196464 17.1674219194798 17.1106090272904 14.5015804841569 23.022388170068833 12.752920926324494 13.303938025604111 14.902362080843988 19.342702319656325 23.832849007756067 18.162160544840592 18.27947659350058 22.157668038437553 10.631383960700116 11.904129294440903 18.03760971585012 9.099366083035783 16.748179148873295 18.77890676992602 14.873663463650034 23.44003110825616 20.195646868123955 17.018034332519655 10.728553070613737 19.550933013134244 17.53699222954619 16.808572135372344 11.961387017445182 16.201792741195 24.41505281406049 25.826035453257138 27.06356835793324 17.488062130966227 16.5487444155718 12.923207776448255 22.398858025413855 14.743592060718514 16.35473239514509 12.396852753345502 15.980349211320169 23.24393917426441 22.779745426292763 24.02900046517212 22.171579714332584 18.195941223644674 21.06835224229004 15.967791752816561 10.310184100794205 16.51107185939874 24.31187195862449 11.46457887369005 18.309908042801535 14.879560740970106 13.279276612411193 18.0343851477073 22.660016247524986 16.642801523608618 9.437588768413903 15.507668825433743 19.100805361198084 22.7051296305316 13.179165152070142 18.161212313326768 16.24095242771358 13.362995003182347 21.046584936264686 19.315368289917565 10.076431316664502 9.887870111663362 11.086201584616205 16.078959135186054 19.717922182663692 10.68896148965602 12.055918374357411 16.25160850586494 21.40095333727101 12.490205385275997 16.430477490601202 12.52751940571517 22.610339079806938 16.28759679719184 19.33589561921049 14.988612955410163 22.106537036819347 15.508702708293473 16.85644571333402 12.066599343289287 19.979483354178182 19.277960041741085 12.903503709843667 15.577302654244697 24.35788828557587 11.308101347644001 11.873523630444122 16.965380176449344 19.82145382632435 22.062676502039874 14.853264359978192 18.93304389567277 12.166916694789894 24.05414297256761 18.308884927963152 12.796405489740987 16.100193403430854 15.917480182219608 14.103858908576342 12.894370102453218 10.111553977097302 19.403974760577597 21.53318722314541 13.026620121743486 16.610441888991506 11.159704813225275 12.666974496013374 10.161219423718185 14.73163598145558 20.469680752497712 19.64344842623015 17.585138487327637 15.542622583402288 12.66655371876416 24.699854257314282 21.9813390475649 24.10859043063767 17.385456561824512 17.452105328565338 24.702152839846644 22.55538187032427 17.645894672617946 11.025020357553986 8.76175727777805 21.290133848826983 17.109643705300968 11.882393184189164 18.96049226878495 17.179014207401817 14.95888306825993 21.55710147205446 22.8811446139666 12.049653160117566 15.179034789635843 17.57374482870072 21.08709148365884 24.26009258468691 13.295564844506849 23.429605954486057 12.059095616325585 20.523615301105327 17.96992268941849 15.713568023500187 15.237355858332771 22.520207434722142 17.549422280971434 17.190065571631163 15.245064970936303 22.45989202465231 21.045534916441863 11.69905631341323 18.495457264204383 13.249391413145737 17.481881382936837 19.082970151483273 11.066878612366748 12.537914190520464 21.437475435965368 11.606300673029489 13.395161429101506 17.739315314859375 19.40555003917948 13.853971368587564 19.35060617680767 15.005236588397642 23.54756041643908 17.637398180171278 22.38798677882836 24.00907176902103 14.189022660214333 24.052407441084164 19.79959797847924 12.934779606901643 16.265921645727413 24.21910165192735 24.57499081155621 13.703839058027558 20.40873673902363 23.27397722011066 11.014961161873913 21.193358071299862 14.036812132985407 12.019559287846093 22.685493178312512 9.937328399847564 14.516450024013483 19.432558382069825 16.55170603604485 16.753712212780695 23.324364742138286 13.59438792743373 25.45818257626855 22.262049307665244 13.44216329426006 14.404767871933577 8.603426420889226 10.899732540568637 18.215732199721486 12.36595930794503 9.36219026965226