# vtk DataFile Version 2.0
Ocean Simulation Step
ASCII
DATASET STRUCTURED_POINTS
DIMENSIONS 200 200 1
ORIGIN 0 0 0
SPACING 1 1 1
POINT_DATA 40000
SCALARS Temperature float 1
LOOKUP_TABLE default
8.822207273849433 11.560536235227875 11.940531510967807 15.820773538416317 10.39910062455118 12.33445966975065 10.09835746240939 15.522728997539163 24.575844453265894 20.254305613622883 14.570845367234543 11.914639555172204 15.85669484789223 20.796586915891737 17.966978700927562 24.01426192546249 19.161936058027496 13.983924343987605 20.37967759595881 25.973739481441704 16.623540129037305 14.749521061955308 8.100683389671595 9.85850338173807 11.909100404326116 12.042472684297211 19.009892938165184 9.971430324165244 17.95703255647551 26.79880994034923 23.087564951233553 19.716416423960094 20.240665095767806 26.038883147466496 24.545453992386733 17.20617856417127 13.009527231811242 22.192518900588983 11.210451753159369 20.557396674613667 17.813502811275107 22.203490724283885 23.212952709149928 15.484895535402524 19.341210569822678 25.250297285304608 20.93112080217318 11.920378208606854 18.767468606932677 10.87126300590678 16.097091335080837 13.046451545533783 17.70202028364262 22.05730577532043 23.70971264710129 25.894729670918885 14.142406113954705 8.889112955364237 14.90794304415044 8.492981077589038 11.151643090013238 25.448102024004434 24.66909927669097 27.09444603617964 23.96450871786999 16.054441678206572 26.038989807505466 21.73888963423273 17.389394129095276 13.065805995646896 15.859061201377768 22.02395329877352 23.38994362255627 24.96812087259836 20.997428970493694 18.47752865462388 21.268066167611114 16.309033102798594 9.93909102836893 18.509388975067264 16.901982687334343 10.095043264311796 12.672903923449155 22.073641689297315 20.44397941656654 11.544818264882817 8.384861111726977 24.562317910863676 14.712415406759227 11.269324589081132 22.14551435385277 12.104110936886743 9.836534413520685 8.39311110187778 12.330049285409917 9.536400356522723 12.146941501901438 9.709894409903216 14.459277232777158 17.71937502593366 11.29291706681404 24.28993156209701 17.745415384099285 17.64166533472427 11.816580753974925 10.021036350144705 12.811960406550298 15.121310039812176 12.917934623749415 24.99541003623158 23.16186078323888 9.248852195706547 18.149491559876072 18.432528365573088 8.961607988880987 20.431518055177307 9.825105659070289 10.86089529305887 18.63835269627075 10.956888672723435 20.775316118464332 14.633793246803188 12.554489870969288 18.74320393180581 22.97210726831584 10.869810964906643 20.512899625924828 9.860016930390703 18.170014039114267 22.419409012578022 21.685535888220866 21.435956430531466 15.263565771710285 20.846406349334224 27.32012078051942 23.82176870932626 17.795681729613833 23.500427603221862 21.8291673637469 19.28118132307252 11.32177219215976 13.476874061076519 15.303182568987499 25.468791820529123 20.237373482872435 8.687486582416078 18.08871914643158 24.741316865482748 18.463000339790014 10.512421114896782 25.957775313397374 22.65072386214801 24.195803116485628 13.938862761632107 16.869960194534443 14.990227443178824 19.798685125662537 13.109311263646937 16.81085580612927 9.95667564260322 12.17565748940246 16.514281648983896 8.88807816105716 19.108089433636106 25.716246280753207 20.448466870181708 18.476593612865877 14.199477280522723 18.78770375053132 15.77227513769537 24.596041854038614 21.409454913109254 18.183733800360518 17.294612298654553 25.073879119520697 19.064581966972025 23.493563472897094 12.984618999947395 9.97386316215545 23.306116276024643 20.135907203513856 26.57345131155006 11.203437998355366 8.660738210692587 11.779189127420661 24.097941183908915 22.346206220827582 24.92596807173734 21.7282928000907 17.476363038929538 11.4764553843704 12.201147503379481 20.14161228030161 13.174639489490232 18.01639722300431 9.905725987091826 24.307516646179145 18.348908922002234 19.634787809977773 20.273837576795575 9.37531823279485 8.20635191523295 17.94852188845327 22.9140378563505 19.687256718276917 22.86068623155714 17.181983715140433 14.739640265489044 20.89487655328366 10.369058582817274 15.773396965726379 13.406416204302761 18.11307985127847 19.695361302038435 10.586977284076925 26.14664045453981 24.488873245764694 19.394791816912747 15.929168901818125 27.105822850894747 26.680169840565842 14.37407780439121 14.32050471880285 14.511623865637327 10.420058238410231 18.876391016904602 16.61202170892763 12.180569685865015 13.797674021896421 14.520878104723792 17.78709035015126 13.619495474913228 24.741487297998823 25.627284872412044 20.82273572473299 24.575944062643984 10.598107007858559 25.692220603105383 17.68179236969133 24.692460541480084 16.27847091595605 21.912128157327285 27.088378265988656 24.64668225328911 23.737920556387962 20.597893343431057 9.70624043089702 16.700223104397477 19.972113108188573 16.113597600199824 21.711906589848077 26.2357649790552 22.81622254274442 26.97756410706178 12.945657985308067 19.36209324902085 18.625248022503055 18.593436810670987 17.47349259836396 15.578674411390626 18.97974592123376 26.826218938880416 22.530674772560836 17.109606927510022 11.812010035912591 9.058452604559024 14.527003859084113 10.542116447284 11.566114992942438 10.240583920629106 17.76191215688989 26.223647701660596 19.336714035956405 24.53919175115118 25.052766087308616 22.68546266323086 24.847803012129162 20.484996911582943 24.6787252000648 23.454463583345724 22.620615789830115 17.754320457937677 16.508504489357133 15.377753069471638 16.302825720498323 10.882778058552445 10.190196036118195 15.774866449905772 11.101429297339235 16.614924646399896 16.10028149167187 21.051614730336926 12.55379948913451 10.756243700349073 21.558508465985078 20.773450864329234 22.251657895797667 9.916568416421832 18.20564349418677 9.584056038089297 14.753708277926968 24.629418462591175 17.200156703955496 13.653640512931574 9.968270640489717 11.966058785740671 12.780417382307043 26.668884891178298 23.140241478797595 18.964263833658247 24.9953326105525 16.94602295191724 21.14785573678437 13.436071869346828 9.505834964310688 23.549382212260184 10.180766253980151 15.283820837154284 11.294155790202455 17.900396676854438 17.27470444524069 9.010181859731707 7.94825360608516 8.50545081932393 25.70058803015954 21.090534940503733 24.919067474474996 11.719370075312284 9.201827234391555 21.202609121666395 10.94162248068257 12.275584664301318 14.483082129455376 11.61406347502882 22.428266739751958 18.23070995143957 25.475894643324832 14.257933288154522 11.201257905702082 8.043609761023067 12.068286416604389 18.42233862974813 26.328967813648074 23.259547431006204 13.658244869928605 11.694137208338258 26.680441118257534 21.791059945021843 14.66454446770733 13.82963759234176 25.278762138532063 19.152247056215735 25.71732091843867 13.405399545983514 10.073831743927832 17.288622389934346 22.09774202294419 23.22150951702711 13.19587155812734 23.06682041230681 24.45429612308513 14.440125758667637 11.588885373983844 12.926823251600286 16.401304672544182 21.91438623055992 11.535855595581053 11.580369238343005 11.707914842478806 12.035867851012224 24.631428717992996 18.21673777246131 17.78863515307371 23.18027672991351 24.791139240516134 12.450392320203633 19.13554246794474 24.817633058082126 24.82987807057391 21.313583800618236 22.93429667905883 24.840380232769142 24.698945712134982 20.508661895125858 17.400211346191117 11.738984743826608 7.779813642825754 12.349221178735128 12.522157328850914 13.229504667197075 13.291553281287193 11.335864817275906 19.82557024513216 16.561503925687237 21.185182739635657 19.089481762916616 17.295694307171573 10.770683611105431 19.621628559838907 19.975923148655365 24.65589019349226 15.256577300197769 17.16222628690858 20.144343688089364 14.345474064665906 24.678819504559595 11.52519072179795 22.1821661101914 23.86826873076892 21.483004366130015 11.427933078827294 16.449914933643132 17.315425353403334 11.895068541922056 10.647809052511484 18.30423806701904 11.550470478332238 19.269958918676622 18.950779142921412 21.585885860410567 22.440871914653872 15.895389747847178 16.20647020587451 9.918194114297435 16.229587609692423 17.398664036738765 11.426008222564482 19.718546330560006 10.216498391469136 10.632985700440688 12.420192029398113 15.726549997437356 14.442461715324157 22.468346771681183 25.939772355087285 26.860358397606806 15.839211869018293 18.70472836037595 26.606830075815786 24.50079166134358 23.806957667420143 12.808507646308904 19.389575360753955 20.93431764684325 16.649612362627884 19.02089137368571 15.0751284466679 9.404461407929132 20.071256351739876 18.28215079320306 10.182585662675958 15.726193650213837 17.27477048200643 25.760038798582805 17.99779107816918 17.65894684470909 19.26883666799282 14.484822042385225 13.818528242092151 14.226524476981961 14.05945062071672 11.895066302254326 18.71610000030943 11.997505463856212 16.079706076175434 21.55198355372112 25.87471540179833 13.036794619690873 21.202645096158857 17.367326338968354 9.531222566057638 24.237838939684703 16.71346471939093 14.123060535625063 16.40620572302065 20.566525577757115 24.99613373733252 24.103325807740216 25.084254655173464 19.209224782534264 24.19092802534809 16.431600730693635 24.16733215085495 15.503829532198287 12.13847184700476 9.734699213195416 17.24818229761603 17.52706148189833 19.147290133559785 25.337981349075577 14.788284656718476 22.280609578332232 18.94249980351826 11.739281646188623 25.031749630386088 14.230431969195177 22.62893104464667 10.335591978411141 17.91536180269415 8.634732519078744 12.342206563737774 14.45586795013777 13.580425898040966 22.554086632242957 17.00429288719643 23.47009035582345 19.607950732395306 26.253379390599843 21.260847760496098 14.475187313648899 22.53261796753938 24.802982755602326 24.825087153168127 20.802334762146725 9.346241858981955 9.616118512076058 25.54571787593762 21.61903341295242 19.752365557370894 22.77973152238647 14.163336033733842 23.443110254046903 9.375625293668811 9.341485843198857 14.776402726792712 24.495335703582086 15.961077427948835 18.55585894316847 16.720750603171656 16.727785573401817 16.164071914729455 12.517784127098635 18.43755554362459 8.725320552007647 14.64021809325875 11.080624869438552 19.700210945901347 9.894224119881022 9.33280591897559 8.27086626368176 25.60424563103082 22.117439328603698 23.686849884131714 16.15460500791372 14.43253661177627 22.572703380446747 26.060177431484153 16.870919271877632 19.711005954472306 21.789047855352784 12.111613446884398 15.689044276737441 16.58027905439815 10.343656230733894 20.29623330116266 12.00140899574452 11.444601805365703 23.182199806492775 23.594345295079656 17.776838766623985 20.991282815588008 23.172878893450132 24.279829624002193 17.888362646035457 22.01226502814173 15.740846759446145 24.704497085059923 9.456985240942538 17.46394607392492 21.506325717346794 24.133839511252607 17.09309298205156 10.168397396391274 16.570248954374364 8.206329468107468 6.7948667584239155 9.919116826785697 11.609291242469487 14.809564921189532 13.016935502571664 9.479040986865291 10.324455428709275 16.902546622438688 18.711315232046104 17.5480250980711 24.301429324032565 9.434633691399164 19.14078490061316 18.71941221598811 24.838100101639508 21.1606983603845 15.093344905761931 19.686819339975315 13.52164504502487 14.200473594815131 15.03171295278848 13.264694262593709 9.856544326671523 19.679419869451003 12.607423491158155 20.575523888175574 13.16533225731132 18.828276238099654 21.521910401626503 21.319830685883524 13.674584397869012 7.084288651548826 11.116485249585077 23.348514459560445 14.91745916514269 24.625871723877893 24.734763226609832 25.151986088021108 15.36362976430839 11.157802026019898 10.262049068232589 15.026760587145667 11.186809932816466 18.810281580772305 21.0434308963308 23.25391431671381 23.27066269977562 11.146617125399404 9.630543750475098 13.594220487847934 25.056238900295806 22.23330142481238 14.729817213895632 15.869838025166336 10.05102897682748 22.160101291350337 14.374024029550844 19.99614512759008 26.06454772316695 21.540517834348975 24.974016441039456 19.904954546019397 23.264279036553187 19.49765335297535 11.624029074798468 15.677522830063412 20.498389157761004 11.661930604644535 18.537501182618435 20.643789300697172 23.19319170665482 20.129933865053548 13.632086790096595 9.625981733175891 25.676422685109745 20.653978382886343 25.75756954937901 18.135127408850973 13.007581488873196 11.279770389168538 19.562963669911305 13.511484636493531 21.02395692177141 13.878760480739698 9.21047619496673 8.289682516105678 8.657171642060177 17.60375894845152 9.533714905416138 10.704653540196663 13.77488973803294 22.91017915596469 19.409877292401287 12.359406703406698 21.084826835464508 12.678463978823416 24.135742211862002 18.659170846530532 12.922768600798966 22.077812993741183 18.91759958881747 15.281434650350215 16.39155168428699 10.85789443672482 14.371121253014735 12.066241099054542 17.536107548706234 19.061891035633543 16.376552324644578 14.798477501084545 20.385327387374872 26.297079782603323 15.748297288026349 13.834522549997445 19.095360598810803 11.061699957420243 16.746040862399486 22.306401763181817 24.995465740319524 13.079935733173006 9.178194304543478 9.900472984308072 13.650783012817659 22.37245356466629 14.93828260997432 20.382705808259608 15.670972605731523 10.822665392822806 10.817168246535 21.327103528485893 16.859255839267643 18.3914954573846 26.133164618843896 21.483267477934103 9.226510066714374 24.19590656195441 10.556180337635915 10.763086217508139 20.01251459236815 14.920326558453553 16.445151134747313 22.849022383118893 9.566874254002153 18.877132240840922 17.74837247412417 19.5942727445445 12.71587406838027 9.52479960764371 20.50481500686451 23.192291519042683 24.725906639663865 24.031217984892443 20.505739633052958 21.332217931250806 19.51499760299627 23.27495404075773 25.293197473652842 23.497796389843167 16.094119355286377 21.07703360309025 25.407251721977374 13.892893361464177 24.447591681445694 11.981756478263865 15.636976109283255 25.239071956325454 18.243198745120687 17.527193271074278 13.390754191982841 16.46008309739343 25.56095017567941 14.477682313375835 19.278084439482512 14.833067833617076 24.601853889578564 11.002101206057944 11.694811713203489 22.661208717920353 14.801390815243302 19.509386377079558 15.933381763144133 19.55860631607768 25.027091005395167 24.470030996688408 11.400454853204593 12.84200701850838 10.582372598391945 23.89633671036498 25.18699923158057 17.346559424530827 25.473363378946097 20.799033819111834 14.884783353224151 16.3693773942864 23.8445987024993 25.805882283626996 11.235527371238506 15.219905595676323 15.639603771161562 9.834081354097448 9.13198372006359 16.31246827777982 25.109414398228456 14.418144207394112 22.928966913931855 9.297163476961947 13.840860258071126 19.098449667618148 16.200912805138376 23.884331315442775 22.82542250937872 9.970474713265734 11.044704611375245 9.842768196476152 14.795821733255298 24.204167017716987 26.660202999298843 26.063790912161274 12.41517237851853 10.912603363758206 17.259714124952357 20.491554876736306 15.633779446988887 17.800005354679183 16.88684996587375 12.191072238317394 12.070101061136988 13.85971000525939 9.072013774364752 24.03755309361308 24.01514476347636 10.258107606539966 9.082896114937384 13.807002380973147 13.631381332421594 15.39962889322159 13.586795424445157 13.611016103737246 19.205851447293245 21.583026809242458 17.69935545771516 15.304422594843473 23.95814496827086 21.641815707844287 12.097810496145382 11.802627259319626 11.484908118350045 16.357759666388183 17.70190804680332 16.01119110794675 26.30354099610791 11.291818165787191 11.247479705185116 9.065391021141325 15.650772676779171 22.892800534565236 10.497109411080901 8.4954323517826 22.701104625668652 25.80565203950914 24.6408062396699 18.665170125662033 26.169086482572133 26.71251193691955 24.707700962946536 24.83862266101654 19.166513317949025 15.312627335701357 13.317693434551797 11.35929684646845 10.610026736002762 22.090468391047487 15.419459765454635 17.433584896234006 26.71901637515733 19.293113501490225 12.599447522946175 9.27960453824013 22.062164611979263 9.735461591395836 14.153786064006706 16.473825735095716 15.89129370050388 23.425938544592256 13.470465769459974 17.85661926423478 19.9431011644232 21.456285718712348 14.258397075355262 19.11699891351746 14.473650610933955 10.988970662091516 21.573058684757903 14.807757949672185 10.5742977860209 7.666840210111882 13.019719641586306 16.458650327128623 10.14378789143005 14.544275349835296 11.14328700584266 22.170853888594337 24.75289842381621 24.249395968765786 23.24328130586718 12.287827828880188 15.272755144171786 22.06084653259752 19.57176335014046 15.012733277715842 13.51284725132087 24.75428989508575 23.058354977491714 12.778312419060756 9.160558928837188 19.228516904431427 20.6046155791019 14.527592597169917 13.977735292847685 23.00544230228415 20.233496059653255 21.916991872237844 15.11221246250235 22.10915213186089 22.044023639378803 11.26054833656535 8.736305489282719 21.5026936236201 18.817568214909535 21.4443676982623 21.730608857471182 9.67102308150998 12.957720037290805 11.12061841651802 10.25659071252271 10.498579017696555 9.040198146933522 24.458205113119817 15.753044371566123 13.06611078223935 21.225760916189365 16.22467301793552 12.102720127541671 24.46418152021461 14.623128021688089 23.65917629534355 16.248739957244645 9.728556772709355 9.816077158170428 25.265755195499228 21.080324750404525 22.98252439737887 15.496333241704916 19.487083442597445 15.537494968540823 11.23915482133774 14.101103062364409 19.672324745826753 12.761183974529542 21.345758816728207 22.298198858764966 14.793602415124168 19.528819354655017 11.9968781870463 18.43060281812433 13.175307677023614 12.498073652228141 15.955661976409859 19.94023617137713 24.326320665105538 20.446388530436963 17.37731379682094 16.8274264501202 16.691992313733635 23.41909231734641 20.934435316290052 19.876321999113255 24.6109268826092 10.05706573454283 21.404170179086524 17.22267843467566 12.568050928467763 8.87584030309042 19.578603742738316 13.390775464355867 8.049393091533197 16.252595961995215 15.089342509152178 26.194948516269704 22.163840904320065 24.36629611162691 13.089470501492315 21.28434059749685 24.05392130144326 15.703883425614485 11.318232653131457 12.045332871067291 10.741811718839475 14.17868137396738 14.130077219537988 14.450257523914855 22.033694026855223 18.740255250572595 15.949126900101241 24.875708450679127 23.946381536928552 14.604799440152643 13.744064981709199 19.63340953583192 24.300434165025703 25.52975794991678 15.695149502163392 9.606589872328982 13.545041357713165 11.942043367147985 24.69412352487417 15.973992744356732 15.464404931011199 9.600957261402982 22.952704633138545 13.368043324645255 21.33607914162855 16.932522457237525 20.83434269335734 25.00740030045178 9.6494191556939 21.230197774144248 9.836343740292774 9.284682420452981 13.82882608824138 25.914013702853833 13.700977498090046 13.387795119578579 19.033510289102942 17.21538589458925 19.31937040381766 23.860920673533666 21.708167322749166 17.97860870661357 20.438764702251884 23.264989096873265 25.012930780841266 25.07258799047677 23.22049019286972 22.353848509438812 25.459581928456952 23.697201976526287 25.551152572401172 16.114176413668158 19.823751791882582 24.413166171240615 17.73641389797666 19.849144371402215 18.147236534378322 20.85919383086727 10.515783478554575 14.528822498583045 11.56667168522792 25.87381311111572 27.001858240649266 20.730973726072865 21.456756782648682 16.142700906048706 20.177310249804012 24.01420958399333 13.320268924102013 21.40430336370957 13.13759698331161 22.753123212014586 21.677766660973248 24.720201546617727 23.889377588210703 21.133875758961207 20.218436042392934 16.75000323436619 11.47081026247361 11.93237827468703 8.923187414357107 15.162126652489386 22.383715810339325 19.657802058307826 11.497961482655121 18.07921595303112 21.65182555708939 19.125871495277607 17.58349940083681 25.588848615755136 15.268026898889037 9.078479429818707 10.963861510230076 21.705207893019843 16.36409525561489 18.971998883617847 19.9055948582839 22.028115690594593 12.070241810964285 19.920305307503916 22.94021487203954 12.716199008506319 26.348891262867173 23.654724252308498 24.995415820312566 22.190365844834865 25.96393264935981 14.835645423755134 12.813474613121675 15.86314460067677 18.047280557775146 15.904470784989979 19.1541211627168 24.827344607931003 20.601771209087225 22.897037527586477 14.873187601904243 8.489450222373014 12.02263902966746 12.832687782488428 15.161136194786451 19.27411678794511 16.282025435147943 10.935916904754595 15.214584109538492 14.591845424599958 17.119723065111383 15.310126603362555 9.442491277597508 13.581596190254384 12.913569886125531 18.262193685883105 16.059297688068884 12.299954666373962 23.407425169733358 22.54404715490667 18.430508756502057 10.204833472561877 16.103235091087704 15.81534027395588 20.526222510341306 25.55164792484776 24.023607770037945 21.365946842989516 11.302474345131717 18.921833158541787 21.700762064117374 10.711119454531755 22.17256069375624 25.54057712981056 25.15899877939973 18.24206106437676 11.977477286924646 23.57249760448496 16.99240640176321 11.341759873948527 16.201055706100348 14.253216070413872 10.596519123039124 11.389254666702286 15.54067077605537 16.503426512653807 16.70806647701374 9.516316828400518 9.458207197075957 21.41633836834122 17.873922562645667 17.28201765429246 14.80502394287495 13.205844450120034 19.941750087358358 11.088141648245278 13.101443143723808 23.54981359683865 13.724456406306107 11.604207124067605 10.632919389299932 23.213211290134215 21.266225969713723 16.719018837623256 11.67051464554665 12.674264081902267 18.751651748660255 10.744443529716749 23.848493808622724 12.913672594616319 25.20268028674319 23.57116368417434 15.272162719496244 16.78541921465626 8.353052215814559 14.298900946816326 15.377446169549986 22.572025465226993 17.16365178240207 25.103573414004877 27.357688811568323 10.552487989873025 17.665329692424393 18.27544940759035 10.579229206997171 18.374499987630017 24.198555121143556 25.762491090265847 15.124614327208189 13.889766213028595 15.96657074721039 13.507853071313654 9.809332910907385 19.002480339937417 9.086315036605267 21.723371745099794 21.226256374112957 12.82802984645717 20.826308016470172 10.318439248822726 10.239620239316537 21.851636983762443 12.157809227654704 17.153326539061627 10.508051103576115 18.044478820719274 22.95742702217628 20.76040429723314 18.64865336821442 16.64515146501368 22.72318709398386 13.879806167350692 21.990065660137727 22.828371111320873 22.495976578373586 21.347361210599487 24.484106366250256 25.7058350330014 14.10903361566839 19.975661622710575 16.338656060458927 10.431207493476144 13.655035891365118 17.763494565813577 10.370924652707656 20.728086405844508 20.179641391584212 14.785401855914975 17.768837155839964 17.47276214180009 23.876137690659615 22.205816773266914 17.05560579613967 24.425742048323162 13.114561147865833 22.436107695763347 22.181174408830937 13.044046463492403 13.465711208938307 11.578218875708965 20.887392541134755 21.9411046486169 19.689520715038302 9.223008016554505 23.287344800624943 17.503688141329523 19.71377163580579 12.658900598663825 25.954695407284305 25.342454208021923 26.39178006185913 17.11553863164478 18.48459668627234 17.57505558371691 23.37823302436546 20.918514927672238 10.868328962582735 18.685554305514604 9.969074511126323 26.389106958677104 26.892389117980954 10.27052910104997 11.911772571827703 13.024618244556253 23.80460339529735 19.13160110940438 12.096583935428963 17.314600847626313 25.70597345881551 22.01715431119072 11.766707296371406 16.979283269478472 14.420410247965071 20.74322145872193 12.347998977538772 18.998496119390094 19.938916089161303 18.89249665630711 23.844124725395666 24.19734713723154 17.479521286627698 11.673008333130518 9.6370395567507 19.30528142402034 15.865878861825664 22.880167995773135 23.615065442029078 22.006805770815966 17.786720542453743 18.934187176953813 23.04924779601211 11.977692300967295 13.292788192004549 25.306650165359805 24.575108081165435 18.76372986435533 26.165442219532316 24.784437936390628 23.022158855016794 9.911322541616874 9.09529133215522 24.698001641050805 19.754295619312156 19.963123790892226 18.130059276044836 21.658720694869295 18.50249205513555 21.230875234871394 18.667142897265315 23.159707176318058 23.018561848599596 17.9529378499489 23.463853580028324 11.22733131823266 19.809810149201002 12.931189018051134 21.63036436971447 14.27575903083752 9.841896749363153 20.376680566851093 26.35935030508748 21.191232124879015 24.091388586847906 21.179474192389677 19.801859482454887 14.564079894178025 17.05625199450673 16.741739994392212 20.03159156599116 10.939684269555503 10.850646681495471 22.479850436881563 16.040488319575402 13.639283982240947 9.096600971448455 10.699774354253599 24.513287364667253 22.856369615696476 21.411154061943087 11.138028072704797 13.748250064460985 16.319941481515304 11.544920307149523 23.32309087909802 15.365648182436615 24.528100553576284 23.381316194026244 10.10803639554484 13.94984921911004 11.454731477813741 23.568834882677514 19.822697805921756 9.933611673867723 20.697957592036058 12.465125243688028 24.208834815454523 13.473588475084702 22.82326946591323 13.776784463788681 15.95531041296126 24.82583623692634 15.386070432059322 24.4439316418728 24.774825942736033 25.47115803019607 17.277359014861503 17.803924262036357 9.514673494673135 17.85697809739328 20.100561099693124 16.35477075432449 16.75100475874121 16.730262049615305 24.183622126699344 15.993868822846883 21.42325806413073 15.453169004979848 15.057164886696796 11.299233603772594 17.401731326416417 27.082208386912733 22.13799909839474 20.945998243547244 23.75470418885643 11.835980182471404 16.12287114795674 20.071699851371402 20.48294315905245 9.261215384441842 11.476011892114034 12.148013343387108 19.286776926115667 17.778557193262948 15.626670706357976 15.303688285242828 27.237095917443238 21.717398385841985 22.628433816884467 17.038344058485535 20.594281561937038 12.844377167709926 16.38743387909473 18.48061863843517 25.781008649870728 11.473298028882708 17.224591023051342 17.071930034077855 17.37712468228554 14.099675518861433 24.01409634397233 12.08897947049514 13.178102668409338 14.74605735199164 19.242041279108278 24.372357543706002 17.787920793609832 17.8473373355801 22.67319862488436 10.059050316389461 11.328837269516022 18.492618216208342 8.481078393176707 17.186749329595706 18.916807270517367 14.573133354865185 24.35293803979506 20.252790789713877 17.137411138951265 9.954269432761416 20.190646452608384 17.11109932017882 16.619282511814774 11.546487749654775 15.883928932065055 25.408022617179494 26.356674667199794 27.622767184299974 17.163150081873233 16.46576258306657 12.147949621367879 23.010822220427798 14.34192821202604 16.517636740375174 11.889504402558844 15.356680042819491 23.847946403396318 23.00507384672149 24.635453454972414 22.278404124607473 17.92189941418658 21.427579046855993 15.989545826352899 9.699750118799228 16.381763335343084 24.97985331092865 10.407668004109548 18.957036910130032 14.409568733348777 12.758398401773098 17.75040665870034 23.133038270916828 16.81240630414624 8.867052703015021 15.53795077848058 19.25624115118458 23.637021237407914 12.431415022190098 18.403982001136832 16.16881468275518 12.818250533981672 21.85713134479703 19.50948699658873 9.62673046900695 9.438156227496394 10.758739699857278 16.136535460152267 20.15970341601063 9.868372038417222 11.44979474329254 16.096377337030972 22.30617220540196 11.995822651145533 16.877953173995344 11.601586553439105 23.239370254760548 15.510964656351927 19.41676896563438 14.342273812625795 22.957828746142003 15.253037442244079 16.781160117903692 11.244619688273572 20.775690455995658 19.298536360074195 11.86670061263668 15.20670191331284 25.109016305300138 10.347137605249591 11.469486738247705 17.45322102889046 20.005682437011664 22.580944228832717 14.487585334771161 19.530791897748372 11.060260580531123 25.092935533858483 18.310417578983657 12.24054174287591 16.207293235944757 15.643558411416642 13.63069372656553 12.601827507393875 9.267048820322925 19.757836482134238 21.992269225022874 12.295199533517733 16.533626685780156 10.866175883051492 13.044270462893127 9.50680849220229 14.335578685793843 20.578278723221864 19.863478479758374 17.5688724943879 15.25873749434626 11.802850530798336 25.42760842910369 21.84998788800595 24.922200499895673 17.17911431607623 17.24824657721634 25.446968645613975 22.91907681160884 17.550358856824335 10.71135251566991 8.203261628321043 22.17452573141882 16.989871073839367 10.737657504184236 19.38855184617327 17.41608114131189 14.547546434594171 22.115387640715735 23.580975483879246 11.407470518389086 14.610553194554734 17.462930550097084 21.56979446800122 25.3236615938468 12.503648407891731 24.6049761210439 11.083970306108615 21.428316877615202 18.077146149108586 15.75418981990236 14.910368590641365 23.289168054880946 17.098276669608094 17.21195690332573 14.846593641692053 22.805331992668766 21.67644621857893 10.805645666042524 18.629493846293883 12.572571746131993 17.78552401876796 19.26842339873676 10.560927867952643 11.912416190896476 22.42599816957896 10.712060029900828 12.798512426348509 17.720718159909826 19.753117761624036 13.457346511508131 19.877468710656828 14.421316184290285 24.734936885309178 17.340998808282222 22.735284497956478 24.422018560012514 13.132689877997842 24.698294524978284 20.036952596696164 12.329099976547532 16.03317183457288 25.015316681970457 25.469123209698555 13.181455796416445 21.011344798474305 24.523289403375813 9.918863424493102 21.859240974821688 13.802580915611307 11.622163089547538 23.668635684874598 8.974606919722717 14.006473463859265 19.819181026550222 16.41729412765199 16.815168298898143 24.52690152161838 12.390406499045934 26.160754260820738 22.72651723624451 12.941132169461946 14.345037460467685 8.069285130620194 10.707819313901688 18.294842494760953 11.906006615255453 8.824145929925933 14.24757788957293 18.6