# vtk DataFile Version 2.0
Ocean Simulation Step
ASCII
DATASET STRUCTURED_POINTS
DIMENSIONS 200 200 1
ORIGIN 0 0 0
SPACING 1 1 1
POINT_DATA 40000
SCALARS Temperature float 1
LOOKUP_TABLE default
14.763616673736406 14.080215847509804 14.788867718087605 15.696975796238343 15.7939574108532 15.539616233768943 15.22255610363361 15.925898766248912 16.94221402035863 16.523756992201132 15.726345148629058 15.697438600624281 16.57324388692138 17.459657012643767 17.931949296026964 18.45296586219658 18.6152182894072 19.023000157874876 19.756100526283372 20.067370411560994 18.9871745952923 16.900241367063288 15.030227665930745 14.307885558746136 14.505837095662121 14.803613834809479 15.028094738032017 15.531673516716465 17.04172637796851 18.393990758342813 18.508352573221817 18.147038749277133 18.719554231853138 19.52710482322498 19.5537399323778 18.691108866923265 18.29255690697431 19.17722707411272 19.49054226020256 19.77894086786847 19.9118509281211 19.860261465323237 19.422490041886416 19.064852679674605 19.433651517188082 19.354518606723182 17.98518013752203 16.660333243968125 16.27243836092386 16.430346489335385 17.208110899212787 17.87283912124744 18.31959259132953 18.988231262213198 19.47584826006766 19.634041936382218 18.40231235879351 16.64189282902635 15.585373967503788 15.160306926403985 16.269566790384292 18.53032107451259 19.69765497399036 19.33907527762432 18.29586363563846 17.83086862145286 17.958545486866804 16.97897889085503 15.652639510112115 15.135555883465251 16.089552009252195 18.05800791025062 19.198203310021448 19.17303496968824 18.6221170375867 18.208772488025236 18.414744144233676 18.623856072645754 18.449827992237495 18.1856702314616 17.24869492250279 16.432924715626054 16.460522116625498 16.80535444197456 16.297242857649305 14.862951895141762 14.4350164317776 15.529981422286115 16.535758849304283 17.09958379923247 17.067681276494785 16.08580329181163 14.849402618979077 14.310760597945443 14.44900046052471 14.173542955457593 13.947116841567547 14.1809402176859 15.23939977420533 15.975869035373131 16.651939950938257 17.226151593435976 16.71620039637759 15.71617206008365 14.846368603051596 15.32849822228768 17.042627157039497 18.4534930069729 18.7030275278364 18.680032146557668 18.37441016265936 17.516903837207785 17.544073255614485 17.183156094997116 16.58300586117174 16.866924511011987 16.510413956089412 16.10322586676336 16.025359806575562 15.926528009067871 15.339914184730315 14.601965833039115 14.965263513541482 16.45221174550906 17.69741254280234 17.587818731744495 17.17608910488949 16.92252518686031 17.3584233054044 17.924856715800907 17.657284956381105 16.89676680222959 16.769843602379233 17.695968845379944 19.073735921468558 19.281111532094005 18.642988002068456 17.59896862931226 16.362553720037056 15.558726953031998 15.707098438085328 16.995803976032157 18.569674825449244 18.757334648386337 17.92201351505261 17.58980717873701 18.611179657919198 19.273030297798204 19.218701764291247 19.03205624814135 19.444119882789323 19.792819392476886 19.434447158053562 17.777579841914147 16.80234069589958 17.130382984966495 17.66779848332185 17.54007773866105 16.894556206021726 16.43997904642072 16.66621356349197 17.2079262537736 17.760512113347282 18.754684132014138 19.174764018702525 18.333891294351005 16.86780641350998 16.003574130644594 16.48962764399631 17.461519723826132 18.71513959460566 19.014622326815147 18.876485809289868 19.10543472247247 19.198889148931837 18.54586026810284 18.109695522037512 17.83064412022639 17.9153524473634 18.879766064217577 19.592762857800953 19.55999772050186 18.111838105878828 16.84107327965913 16.492644497363603 16.992491849117393 17.405401618827902 17.80638542123833 17.451722975796216 16.720821564149105 15.7102476008629 15.343512008935525 16.024312067225466 16.49975872462993 16.863810553291653 16.932841693544624 17.424233187524653 17.91334124841048 17.882713825376133 16.59893311510599 15.286812538686686 14.7933321091094 15.792186612626852 16.984189481174976 17.225592320169426 16.902375892038965 16.27078710559842 16.808061461999934 17.610307367218383 16.991720005056195 16.198433046574145 16.149885068030713 16.64439893893463 16.86361990896635 17.0938145569929 18.040780414409944 18.49063377093725 18.883810620435405 19.757389690624944 20.49466552568801 19.562744524955793 17.13306572767524 14.933481422741684 14.024393273189455 14.431652545381944 15.21163180152971 15.30218470951164 15.125164039839461 15.584015297507035 16.498504764687922 17.21676483979526 17.883269297071042 19.444085392160577 21.025618147621703 21.3281067676934 20.37414658673306 19.346211590139266 19.81192599837745 20.15053367477734 20.285178963808672 20.085168637697002 20.082340436414995 20.186174853167994 20.055747888526373 19.827497543133987 18.997750827779083 17.346523831276457 16.38819053521425 16.670911037095127 17.195390584735105 17.956036712551796 18.823950717617485 19.407394530934365 19.674242310164104 19.209771367811747 18.798427715824467 17.769668272358558 16.476072416663822 15.566314842845166 15.246903043828171 16.267404855938363 18.077955987678042 18.77225536278963 18.004374411879354 17.076786771898206 16.95083059579257 17.232692542768756 16.44581355602568 15.566535557605885 15.441590702954075 16.683541267845715 18.77034098917857 19.673933637542877 19.840687392373344 19.936165611964224 20.08373797659132 20.34182125491722 20.221492273700907 19.847030932454476 19.379992386492496 18.47306809683609 17.465268119450375 17.026585646410634 16.5636726859279 15.638594549471604 14.636675132540276 14.769379636322583 15.735472562596284 16.390038424677407 16.936388752474418 17.073513690041082 16.656578569145402 15.71605905571609 15.355603367593135 15.865990445894326 15.781607603822799 15.320502291749877 14.719825230334683 14.965222954797737 15.099769085920967 15.794630592538367 16.691726617136617 16.530370686748604 15.91968613123909 15.430449171830649 15.983030315289533 17.577048968136488 19.267158501508174 19.578880115681663 19.393217824790785 19.29684444115665 18.543561299070447 17.977840219026948 16.81771206001749 15.762090997435925 16.094857234779077 16.221716799055578 16.193151419564202 16.389768829199063 16.46209572067787 15.791744253726081 14.5427017267979 14.060591216006218 15.522022036866105 17.81449778638213 18.709557990674153 18.251147637777446 17.164991007077635 16.90636219353023 17.21794923541052 16.902080054693513 16.3827822288148 16.31422483243216 16.920499252311924 18.25302969864201 18.69554168264836 18.15009205883721 16.650443516070283 15.145722241625682 14.882983869152413 16.15057624920693 17.901286767256376 19.176941731658243 18.960774035308276 18.10062532947373 18.19889133307033 19.23073076728083 19.340311326170955 18.755810023960624 18.53651299136859 18.89387581746522 19.072371654618568 18.574922839155565 16.953716130210278 16.23925279888457 16.72396957921086 17.77504153333859 18.40962002752588 18.160570571410414 17.74440766546466 17.595918916236663 17.43830114750835 17.523071810487124 18.207380852724217 18.777862657434262 18.330725390312146 16.935228111101388 15.842070838300709 16.354916688951633 17.741878507968092 18.962583560321765 18.634771134689892 18.010557330296006 17.907533923682507 17.45778273003135 16.732077738167725 17.01827660822969 17.629670305098834 18.039417341251184 18.523235849357576 18.72951696431145 18.842602077976693 18.322653891784718 17.631667743149002 17.161623074867393 16.722627772642046 16.05374911326866 16.188273196286122 16.41437631751834 16.525953263568688 16.29024911799099 16.23594872434058 16.687591590194483 16.644202909892407 16.700156129960888 16.63458731880622 16.684144153868207 16.784763879944336 17.14761010665767 16.561281223696184 16.339832225223137 15.898516398942155 16.635488388176164 17.645381454758652 17.890404570898557 17.324405563550208 16.29694523241981 16.802647196974362 17.805558312513348 17.548544139834153 17.129604586134064 17.144523377984555 17.056999698727495 16.379859933198865 16.012420192941157 16.67136179890046 17.315595164632217 18.147096086791585 19.273221229625257 20.11831441681939 19.546146801304545 17.484664413316697 15.3799014441998 14.4889180622045 15.200097203417899 16.23398985335883 15.998453809609806 15.200635222024587 14.707816771110272 15.066278404336627 16.001808235811936 17.03151979369867 18.999325357265285 21.29682106390948 22.269904332765115 21.711939625138548 20.573992049759653 20.698237840425797 20.886861913070632 20.547302793019487 19.83223117774071 19.279649526548077 19.19229152236867 19.276019057151764 19.110063640667224 18.43086353302671 17.09172123259106 16.300469576592885 16.880864576100855 17.71021744859313 18.102361645408685 18.55537819086015 18.809170846113904 18.794044939908986 18.089346139885375 17.738809306785257 17.20597289569911 16.419391469964804 15.493405204826244 14.815105696955937 15.178815545876619 16.267942219564027 16.772424515130414 16.170628452622147 16.01208303357854 16.73928825851321 17.432124622527695 16.884128474254222 16.148392820926375 15.870363341989037 16.56155302425547 18.211489580060118 18.650392349555453 18.633722458541275 19.205995480149483 19.93631148471103 20.54214898284098 20.54005087139222 20.041234010389793 19.316192837918177 18.554530188369107 17.972487767079794 17.652497821909353 16.778509897279726 15.825327641884549 15.592008922822991 16.26245546233035 16.748507865363724 16.857949155493785 17.125773381516865 17.208573810873926 17.378755783747525 17.072456914005055 16.812858874648594 16.908506326285675 16.42707113787035 15.913568268528595 15.342852612851729 15.414774828300262 15.074952907395035 15.234166520820086 15.753102841106429 16.011794680474537 16.37843582395154 16.812609066183875 17.537212739229172 18.648380572037198 19.773571342676203 19.41601513151123 18.672657840866588 18.795159685129182 18.54143575419223 18.16237481920808 17.06072228080776 15.919981393822365 16.282796829588147 16.956904156541057 17.13871180356462 17.435402357749265 17.45667019643241 16.69042664258726 15.241456792334546 14.239907723832083 15.48238843160869 18.117151504400276 19.633630907040075 19.30165547597623 18.10058518590059 17.47148472679732 17.35821652535886 17.05827761520436 16.786873999681603 16.62764956105609 16.587777299299734 17.427172545928983 17.79637217730002 17.297658847019456 15.951950846996924 14.720459546411464 15.162164216945495 17.066744461016654 18.51625082962862 19.060856719492282 18.60698093196322 18.340202574605843 18.958848952706056 19.48302522170958 19.112738153527914 18.57057602324535 18.34369935935089 17.966101329125706 17.783947088242545 17.512107525096923 16.474412456281446 16.235180073018068 16.568837815349916 17.65210063477221 18.829950767279822 18.895081083732464 18.135670529056952 17.760586921414713 17.923430861725503 18.51914342819483 19.139033169506487 19.437538536783798 19.085732145644805 17.889427048018078 16.796629113887043 17.25701994258598 18.405447985048884 18.797787155943723 17.510249115053085 16.26971675178506 15.747573738624741 14.976171415351937 14.578295642847477 15.539625269718535 16.7328256732675 17.21487744950592 17.232969907218145 16.83774379802057 17.015894984240134 17.59581501922845 18.091663592666386 18.214280386898917 17.36517128605182 15.704737699508508 15.329897946107911 15.992898079736083 17.131362985837345 17.82563298534495 17.8202747142156 17.462046215382696 16.524287992840577 16.20239984624779 16.227683254663948 16.268850276972092 16.33233457319913 16.946248518102088 16.930349350687226 16.72082806077446 16.152811443058667 16.530859552466946 17.384265062712963 17.870769475801243 17.07753738733901 15.489284095892279 15.668657361334414 16.917464573342716 17.401017330404706 17.81249777981236 18.139776134232683 17.856385470928764 16.913321389078877 16.22789164790708 16.377281322817772 17.00031118994903 18.017449971280314 19.00983787368578 19.454883866769443 19.05617790247766 17.670489315224753 16.071853582973407 15.484769193984416 16.435929203028998 17.511658871242005 16.823466265594263 15.536481733172412 14.778656223784877 15.040549609571714 15.862168181085991 16.52025852131695 18.35397615382831 21.04969299516727 22.493981064522576 22.32962445842853 21.463042387955337 21.385499022799692 21.197455287837354 20.38132354239695 19.413938116742074 18.530715010752136 17.966574064470468 18.043437174549922 18.223830947815312 18.21160576510242 17.61545977019811 16.972552804507565 17.453185051528514 18.343412575528333 18.23872364862529 17.84350697170152 17.400091094180613 17.15373726729004 16.663321583690127 16.71878803144873 16.74591663224495 16.591847417518885 15.858952607471561 14.875548235457373 14.777517286088242 15.442171203315942 15.730912001573024 15.164659691012263 15.356378810237242 16.414291527502463 17.383140530428495 17.252216820060024 16.47147772161717 15.855236330184107 15.945029327751293 17.183427164311617 17.50015274143347 17.40609741512778 18.191734551352653 19.06843320943554 19.821142188965585 19.951104457635303 19.320138801508303 18.284008036999705 17.50969129509208 17.56642030462633 17.84338439177565 17.333892733282838 16.891231295962847 17.365542369717776 18.143929357766964 17.726259975806446 16.754549951694944 16.43163600868839 16.626278386475175 17.323979491813144 17.668536551051684 17.605956568747445 17.187963741479148 16.36048140786139 16.014736712319255 16.04122915831689 16.465361710280224 15.959398480212643 15.35052567478973 15.197712624397765 15.633187234480195 16.55067444958043 17.494702991627037 18.005221711672412 18.438054482382697 18.864321245028158 18.00137169207105 16.882863674963428 16.982580554056177 17.10982356841559 17.482106618726593 17.267212361105724 16.665791616994305 16.91364233911043 17.266210810981857 17.259068639021375 17.74339705928407 17.876204906112417 17.386392291888043 16.048162605328233 15.061731472218385 16.26897819312776 18.834375435715042 20.36802592565912 20.02209908910918 18.789274717175335 18.01262597475475 17.58959374816876 17.38410880073475 17.48614097062293 17.48079272432619 17.26753260663691 17.78357253652221 17.870315334384678 17.242931883890645 16.409527423563766 15.524766680249929 15.94888822861486 17.23398741425824 17.894722937556015 18.078266095164956 18.010040602909548 18.458262512117393 19.117776626645526 18.884588772845618 18.34607197575125 18.267363229173156 18.49293044258978 17.92003456258639 17.54494854888275 17.37539884220108 16.651171946340874 16.635404121490414 16.721583746887873 17.44347618478229 18.43138369513682 18.49217928279589 17.274815129997076 16.554907577819773 17.140880598878294 18.555775614840805 19.74429651697963 20.10132294692923 19.885480634698943 18.910766947534576 18.20396010468513 18.465892711147298 18.70758630233506 18.087799375716475 16.336176090670815 15.074782043454904 14.731925492657274 14.391601688639504 14.589125469745214 15.802563636280636 16.931212043264527 17.23352248081397 17.122592887922867 16.360385951551944 16.24204468642859 17.120258174727915 18.436869640305883 19.186770702511083 18.209230388887004 15.847014862906542 14.612841119365566 15.132941929638923 16.912656150906017 18.516739321701902 18.740825651790377 17.82915798280164 16.49825486029264 16.2507889324532 16.56325768226189 16.89927668283978 17.027791704952957 17.470612062984653 17.363989697436004 16.46628181455693 15.925697604010155 15.944841525245742 16.67933625810844 17.801398198004673 17.452786910908447 15.540302205101447 15.024877975407072 15.878701559752887 16.55193042300004 17.373064449600584 17.9905230737951 18.045528257721756 17.845818140049904 17.703142883027258 17.800312181463564 18.350347339875892 19.227386890286216 19.621483800401478 19.278170735994006 18.75492913407987 18.08615584861545 17.369281830136543 17.17812166347693 17.879079063945635 18.334069441027214 17.12117020424454 15.81345459934072 15.3821100374808 15.698443688999845 15.944572590092594 15.95369451633132 17.53750526828685 20.475653271075647 22.22999945636526 22.28255690516071 21.7917449739626 21.797721547469393 21.633515982974416 20.72727818195969 19.546916650981142 18.490811095962943 17.63375018113985 17.46016969929963 17.632939902314593 18.0989834851131 18.338924768247416 18.173064955089053 18.306191787590524 18.31894630394495 17.31320420772936 16.303653145768195 15.906759909517694 16.151729118619006 16.128850762083655 16.413378671207912 16.740344111348087 17.09886096869254 16.921504670031048 16.188203821255875 16.06397252061356 16.433170155679036 16.139312739757774 15.357405509254768 15.5418013566166 16.420783171754117 17.247600816316574 17.449015842132056 16.63964140485054 15.584718377528677 15.210778451957713 16.273802530344668 16.907999959057182 17.08167442133085 18.075942687215296 19.078127149508536 20.06844378630996 20.41451265573189 19.710118933279876 18.14202427865192 17.030954420408587 17.36876626084575 18.075856593063662 18.059317295145767 18.109254413646685 18.753265872035342 19.21773551044721 18.146600325816625 16.364639596988606 15.602039855507847 15.980811670490514 16.819679659702526 17.36384634791018 17.65676153620272 17.46550653187481 16.861282885457108 16.703607233052185 16.90667805580696 17.264331661985867 16.5096959847021 15.311235324861705 14.948927845998725 15.74359036659686 16.804398731817923 17.556437647650345 17.546978237784298 17.437117654412162 17.48193850007502 16.657824918347895 15.654208193871634 15.812984253805709 16.45503228219282 17.58572948185012 17.992052437298053 17.768427714843714 17.657704596110708 17.309143009958056 17.1357419031146 17.742687437561738 18.034952869808098 18.05322662408248 17.070030082682113 16.030515262759224 16.715676751045944 18.810092792747945 20.06894175695394 19.50659147438618 18.089040954058913 17.215743278152107 16.55561726432187 16.259135358461485 16.678067683271273 17.153739673529323 17.32571797193712 17.654335806421372 17.342966772821597 16.779227720790878 16.639876615553632 16.263889549351052 16.28410184582985 16.512326058044415 16.697840525985704 17.083503577824768 17.572406405915775 18.359487839864318 18.777765864820722 18.014389596654016 17.472070557118208 17.94630823865004 18.872826349291717 18.763024497313737 18.25463413036671 17.644289158744467 16.74776001999821 16.649551962682853 16.46544860863601 16.81278472869646 17.442977329483885 17.7682299313147 16.798789826269147 15.934811828089854 16.365869875585467 17.61188263967059 19.06597034549238 19.708274637107525 19.78409107892977 19.287747099340116 19.38586645007631 19.476693989110682 18.5455441049272 17.25105727310209 15.713983489362857 14.831952731239397 15.183283243918327 15.751002299765668 16.207117216461025 16.679662604812044 17.028133827053335 17.159531400526255 17.248664612963136 16.65182110467089 16.285431324703072 16.96032268767817 18.64450650195345 19.61463293751559 18.690314373271516 16.351731037855625 14.60527292741755 14.71844855023261 16.382906156328993 17.951976945269436 18.109355910840257 17.18050048551781 16.494085834678767 16.872193292293154 17.26864606065336 17.630862536888237 17.7878729802499 17.90161665940042 17.375020585784814 16.448764730615427 16.63126366358835 16.61994858033623 17.065051359480623 18.22896116153775 18.22118073244304 16.360553151472402 15.473623197889173 15.724775112789308 16.058366124114883 16.944613497388936 17.79042119921889 18.08826445697929 18.469533593773416 18.770880387290994 18.913530438790964 19.374297840175636 20.144970701417662 20.424960159880822 19.967396121579363 19.490003552593915 19.273005378643244 19.030309331970585 18.963686632818938 19.146236864266037 18.753560484103232 17.424342371635465 16.584606828846514 16.620852820669075 16.6614572189888 16.148839593688244 15.863376453376288 17.394250280423485 20.061878821064262 21.587604606810707 21.6553082291992 21.50190052716423 21.464426102288165 21.213876794126517 20.192393474525062 19.0063325164192 18.440780768328576 18.094635384180194 17.943213946005606 17.97943228478428 18.478171232993443 18.971606194259756 19.213075070468392 18.812737105001375 17.471839245876563 15.829620827670546 15.118518582646148 15.444784786181637 16.21824984500113 16.566080849079114 16.92383967686874 17.221584917853246 17.556736316208443 17.55645103345195 17.100396977857425 16.87731877417475 16.91778717151903 16.204989667356482 15.579191085566054 16.008416367963573 16.92022024549561 17.667223547978082 17.952849264453196 17.17631527452879 15.921164369964632 15.416345048347315 16.52094168404693 17.59315578309139 18.20576055128699 19.291487839304942 20.018328413125353 20.54761024014396 20.545383986727064 19.671757245445086 17.880073737397403 16.968176954159997 17.640908968136145 18.47734273398033 18.812300945967557 19.297883754821914 19.63112576222866 19.282328699305502 17.839589375404838 16.187204927040714 15.586726560357643 15.885167236793546 16.54877892654275 17.16532987758166 17.701181049216956 17.555924955656874 17.047807007266076 17.040937589565253 17.332564250657406 17.451610911128657 16.583361057690617 15.420447690860726 15.167698277654733 15.942720265710825 16.673217883310876 16.993976206102896 16.695451073273 16.789830689900192 17.28615450390727 17.13095199646241 16.561933923417456 16.716187861728358 17.319644219194956 18.33660244211516 18.863248146679886 18.873762237875372 18.418269967629485 17.53501703521596 17.110786547846395 17.561211093176098 18.043147745419372 18.410868048442367 17.778761309890346 16.676643261520862 16.731333424015528 18.242560929964984 19.207276262978894 18.433927873234868 16.928759794497935 16.11959619622179 15.615610425665889 15.494812943629391 16.12561576871287 16.80456887535965 17.266203585557644 17.20314615259605 16.392999599835413 16.048275526716466 16.553938681555024 16.83372291300789 16.574512977652162 16.15477896010961 16.153871427075128 16.530572361748238 17.072085936992924 17.81029801174488 18.166253894603965 17.313627735548376 16.921570510070204 17.761027895702487 18.95091915867275 19.215341044874915 18.696319950459532 17.717002128612656 16.71052274695948 16.4106365741812 16.11510178297976 16.64223911481535 17.313033583788858 17.84030135885445 17.366174919672417 16.606334617701226 16.498691245021 16.767514232345313 17.720968770035775 18.379756364091925 18.825579697980263 19.044855607863365 19.988973999375716 20.28730999913592 18.9943670089923 17.744993403212508 16.502561083077126 15.689633334711425 16.44178220327773 17.56825672188917 17.68673731068818 16.85020530240626 16.334248942695154 16.32595919160076 16.500762824656125 16.3052119103326 16.15070404860382 16.805188885221472 18.56724429809182 19.301500688355524 18.540191685170505 16.88397681101884 15.321003477526231 15.140920489681507 16.395979451295155 17.506839676554105 17.68156973004288 16.90171315224818 16.707664471864454 17.237056685584122 17.389752281836486 17.555882858939828 17.72624323868459 17.44763771407849 16.764030310250266 16.949118611779852 18.1276988590794 18.594840827198365 18.79869657387401 19.296116003581357 18.845569981715826 16.899061737347427 15.876266033744361 15.587145307910767 15.358084124383181 16.137264183136644 17.08404647620223 17.491084629411144 18.230163772583257 18.60622200321608 18.39734628799672 18.500345604167606 19.30617807095527 19.884501253806288 19.56783422460403 19.0299584311826 19.167272444784306 19.54868804969591 20.02855071754761 20.02723957646427 18.923182488058654 17.57177178483654 17.091882419678956 17.43135910046199 17.211854840806204 16.480319019426926 16.281966671177155 17.72956669736959 19.66929265164543 20.7103489882844 20.887542921165636 21.011978042257432 20.822700374789296 20.243285136106422 18.932099805908475 17.932282624280095 18.13390360472276 18.47849843824967 18.0698701356007 17.77047337887821 18.09346138658772 18.638981078377004 19.319589854176726 18.81465987764536 16.790371418211752 15.095554667866681 15.08087426131294 16.017786958234986 16.73964356386464 16.901429656277625 17.22514622040838 17.464206450266822 17.48088903322434 17.31150937415854 16.845058650849897 16.221478272476737 16.027066533183923 15.670204104601632 15.823707010868599 16.543669713337746 17.157286967833148 17.674176486539366 17.868648932904325 17.0994676558652 15.839312047902492 15.57141881402341 16.847442721150276 18.30511481605043 19.147952090534893 19.83067141712796 19.922283071954663 19.844139862050334 19.493795427494113 18.75452867842855 17.467283538242903 17.2651723780207 18.238097546663216 18.90506851401271 19.224428105277475 19.646454993195988 19.183876188850757 18.111109600227113 16.94594172493608 16.409707020803317 16.521678119608666 16.610521460572155 16.926658449745965 17.450006993303685 18.03916749916754 17.8238867427673 17.30030791630981 17.341167633710405 17.67310631987241 17.611523713245965 16.81192224045403 16.06118483903978 16.150488884611363 16.710418004341804 16.783964319717047 16.50034262333296 15.636526597324485 15.598416109705243 16.674244156189964 17.683724427295164 17.99733636819696 18.09956356141503 18.21715597997618 18.57596322974031 18.92108167649364 19.32683208063357 19.06237258980011 18.147098955063747 17.440229330714796 17.640980099953538 18.247416291943736 18.37025681622441 17.388319999661725 15.943569726337978 15.790981506585648 17.353993726857848 18.38578107791464 17.856161692843216 16.681506781588748 16.023158132721576 15.869287660197978 16.160212956233526 16.804604822616 17.190954702144985 17.67635316966434 17.448966469843686 16.565736807201368 16.25028368087313 16.584595929220114 17.047810868509213 16.69345055755586 16.19765177194187 16.14060901879429 16.343316082384895 16.9261280743409 17.696570040993535 18.062314079911687 17.440667672978527 17.34177200555873 18.18889556076953 18.848010039687775 18.984863472505168 18.727555176528963 17.8526232683509 16.936640506214555 16.463857008632463 15.991918143440127 16.543241988668775 17.248281817917892 17.630040572634012 17.567067179653478 17.30023493858459 17.084439641953615 16.78920049772846 17.148281907229244 17.434323225271996 17.87631889425656 18.50125868597888 19.86996181080747 20.554241844443503 19.69125981125512 18.815522816571 17.62601747235095 16.614996398532465 17.19175557678976 18.242550490615056 17.9918845779588 16.57349903338601 15.906349044510247 15.964539679903499 16.202308757918846 16.321229404857434 16.14514853501664 16.6204315695404 18.12278135275535 18.540966400425763 18.206345649946982 17.376455255181742 16.335378666540198 16.03684762459805 16.970045754226348 17.994618548633376 18.47153353824075 17.615944910087958 16.866468287700236 16.620250400060492 16.24225028339416 16.44856426266374 16.98123223860827 16.58937385244441 16.20252801469725 17.309610637847705 18.97410917174672 19.81908878185008 19.814559216456125 19.584875267198484 18.640041101922748 16.790932371815792 15.932892451897294 15.57098150691072 15.144062011627778 15.90695189292612 16.795269277688135 16.947145554598627 17.570000416417574 17.95780329282501 17.498993472105695 17.192699986704362 17.945940811461323 18.727821221712432 18.46150881277535 17.708868492071765 18.03626833748046 19.128470308789552 20.34862825422468 20.84661894332761 19.878878624157178 18.63735237142544 17.95415615172703 17.7219613066307 16.922051314779292 16.425665832287127 16.735473156028743 18.083283264661926 19.399611198608497 20.11831743407779 20.293048891012223 19.946701883923662 19.13772831316151 18.307445403354187 17.101099387238705 16.53529155413083 17.4688564314625 18.403356138002454 17.938148900061236 17.883242171566373 18.338440340468992 18.716950432128694 19.038030929721454 18.395629115637853 16.53466275509552 15.048486278433531 15.217584599197602 16.022951120640414 16.600442702424928 16.75093836853851 16.80174672941647 16.6662642867777 16.581928220765633 16.691626076614163 16.328976362754393 15.291152478136635 14.945443910902256 15.054743546966431 15.662090475445641 16.41404375761787 16.49538215536637 16.538320470875824 16.71092684367494 16.416035853852975 15.71020914852865 15.941339616000882 17.307438861077163 18.845388510372125 19.40601991902114 19.40583074931763 18.991526051645387 18.704189772675843 18.324074767448018 17.98569829405994 17.499752381093845 17.673028639828196 18.331845798392635 18.497403214263354 18.495215114721194 18.47864378652424 17.318888588652094 16.228263959144208 16.113824821996545 16.725316722908342 16.86541546434778 16.443765143154966 16.550734812239295 17.179402030725424 17.78506358735437 17.54409524813277 16.927857086632088 16.920055007305997 17.244596670416744 17.219125151214417 16.655395035707926 16.405015939880577 17.26618893697588 17.87257491903897 17.41763100294147 16.45547904234948 14.857364406850575 14.256739846548083 15.293221738118818 16.909995286113197 17.868755636324874 17.947877141481506 18.11234746266086 18.6734002288122 19.358327795107225 20.174830078116376 20.040880805156622 19.161240486138958 18.52290477886617 18.478213548885613 18.82621335512218 18.80334222386987 17.687216962768492 15.724412948399301 14.790923196174822 15.942562919473618 17.28607046004354 17.724044374892017 17.43876753962577 16.91622046263727 16.833030123889355 17.16295958806884 17.380628506094826 17.328966744797228 17.699000314968686 17.565365955324097 17.207691216152195 16.99926291768527 16.66568371967112 16.621781709332957 16.2691967499999 16.06012805751995 15.817454919736354 15.732137441592688 16.34451792954657 17.553042001998488 18.214815919914873 17.9521908266137 17.921371857425992 18.321020946986653 18.14173793809832 17.66071709385797 17.43073567901963 16.849290734029708 16.56409217206667 16.74979481264077 16.593331702164516 16.91654193216672 17.38728274922177 17.685146917088655 17.820538181674525 17.55197133481835 16.953597324157503 16.49646474578573 16.66955524224858 16.870394236516198 17.460491860205188 18.411241739763586 19.596388272342416 20.011697617197928 19.409841695377583 18.82077325872918 17.718524674696 16.946142480002628 17.36390325403379 18.08711905870445 17.77171636799956 16.683295530413282 16.2801708597537 16.228201722447864 16.26177017173313 16.453604962101892 15.91742988720813 15.749702216989306 16.64552475820653 16.974521650202508 17.36136287212619 17.332194173396612 16.780696705115133 16.53445683228666 17.361300133969337 18.61521262678797 19.558322344484058 18.806039300717785 17.23653438022864 15.988023095320864 14.935977660458875 15.318544968834617 16.44986202208065 16.33239029892729 16.139694896994655 18.415826923333086 19