# vtk DataFile Version 2.0
Ocean Simulation Step
ASCII
DATASET STRUCTURED_POINTS
DIMENSIONS 200 200 1
ORIGIN 0 0 0
SPACING 1 1 1
POINT_DATA 40000
SCALARS Temperature float 1
LOOKUP_TABLE default
14.781038772867175 14.10259573469079 14.800172588595341 15.697397644635377 15.798479010330118 15.54528594973549 15.235524861698057 15.926826970158523 16.922536624864335 16.51617731215523 15.734306685321933 15.709229042799086 16.57316745433121 17.45000021034526 17.92408087728052 18.439970491991964 18.611206849493023 19.023283509526326 19.74846878792425 20.051280527474773 18.98133490091814 16.91378540442686 15.056211287096858 14.331129448802951 14.520038724420132 14.813955039019847 15.038771623228104 15.54574702207948 17.03507004676349 18.368262344431002 18.4892894070415 18.14403647245585 18.712123429395994 19.512029986490457 19.542669417231085 18.699617684130388 18.31244187239066 19.18025555001306 19.499966006322424 19.78249150447168 19.90905373425476 19.848056861070297 19.41241935320035 19.06280965791651 19.41875295048786 19.33058194915652 17.97815354714013 16.66648116212252 16.27715032853808 16.438781463158442 17.2088156589893 17.87018988757451 18.316671167914055 18.976786929683662 19.460266750748595 19.612202804351252 18.39912510620018 16.65803072477685 15.601271461597255 15.181843892281952 16.279798152311574 18.508200845160395 19.66524921308316 19.31238846380756 18.284279422675528 17.824198002922444 17.938128178550766 16.970600851750007 15.660675435657554 15.1521001024365 16.098130338229353 18.043136167848527 19.174771443391002 19.153130974439268 18.611220420200933 18.206523384209596 18.411390702721672 18.623540897384533 18.45678334030288 18.185512733387128 17.256802863826238 16.451240461588863 16.472112491321067 16.799864885973545 16.290460585399362 14.879491274989531 14.45728905445983 15.531247656723977 16.53408844882705 17.09841923209724 17.06305132483908 16.091754451014094 14.870030382788038 14.333920989914978 14.459310252588082 14.185663531675074 13.962532139397993 14.200094122239879 15.24390091341034 15.97794751932427 16.649966543774614 17.21014628322586 16.70705248779467 15.719655878055132 14.869460831018639 15.355575400517635 17.0552958639444 18.45346474040132 18.703254184815705 18.672676862549956 18.365991912204485 17.529128898109683 17.546602591104943 17.188922858972486 16.601555719697085 16.872119880836795 16.52612168964696 16.121175540302527 16.0346818024297 15.928148208279875 15.341474420420594 14.614933422421352 14.977124665715369 16.448668209363028 17.684840667159705 17.59067057633397 17.1836644605621 16.93526140726994 17.361854565450926 17.913914975475528 17.647252038208105 16.898369114688975 16.775418261983056 17.69028984518125 19.04681289034231 19.257839219824557 18.62688338984214 17.58626435790589 16.35862895098335 15.565676135687518 15.72147558300719 17.003169313495984 18.55817325792926 18.746398838881298 17.929678350645975 17.611016074872733 18.612636188297394 19.267823986905654 19.22088604962259 19.039671417020706 19.435565279821883 19.77410110090373 19.41341627988069 17.782678051079174 16.81730227360979 17.13471643331382 17.662888138516465 17.5385309123792 16.90224038117406 16.454432189446795 16.679851456060995 17.222408322416037 17.780461722596876 18.75822178049742 19.16553174678877 18.33105515140374 16.878684659070554 16.021057768378267 16.49536812919692 17.460709677415377 18.69669174152185 18.99784709399215 18.865937159302796 19.089081254457593 19.17605208240526 18.535372288189784 18.103708455567215 17.833301798882776 17.924318106903964 18.872233315912375 19.577411322806505 19.539691253940735 18.1152699997104 16.85722689167535 16.50615685022467 16.989579351391267 17.396625452384967 17.78931222115353 17.44423496757664 16.722880297064844 15.72631946425587 15.361868799877023 16.024799970659874 16.49815383913554 16.859649474851306 16.936115048056955 17.42094952253003 17.904976725953656 17.868584421926048 16.594318492675573 15.29992065945687 14.812176138722679 15.792517925087258 16.96842326376591 17.212277900912305 16.889884868588275 16.272255008275405 16.801835407880336 17.591370610528926 16.990861620312224 16.21047127278968 16.16073760495066 16.645060467003702 16.864852417025396 17.09854967283663 18.026236957723818 18.479562464988607 18.882639392680275 19.751172082020265 20.4699370951001 19.541845270457163 17.136554415849005 14.95181804694197 14.04503691815262 14.443806037304658 15.210880938899141 15.303730765021283 15.13634256570348 15.594386805142815 16.501175067100224 17.21701359491138 17.886332612937515 19.432599646812267 21.000554602186718 21.30721658698064 20.36995439176268 19.36288934195214 19.813171060236904 20.149257419140838 20.279391264989947 20.082877907249976 20.07315936378576 20.166256557933238 20.037063414316602 19.810369780150236 18.987434829809523 17.357291305356462 16.402445290695006 16.671443436181065 17.195250078221456 17.951093382519467 18.808909174468724 19.387368314349242 19.65126703876622 19.201759157358694 18.790013516024867 17.767709395334023 16.48100219413922 15.57167979545958 15.25511824529648 16.2644410753785 18.053216983298967 18.746889247164827 17.997786894053522 17.086346817791167 16.961593733907197 17.231257983670133 16.45460436843949 15.580758501201831 15.45648703534497 16.68482998438829 18.745797073568422 19.65157253245245 19.821228463455775 19.916244366352664 20.064619165923844 20.320769638494202 20.206160174066966 19.834075161784504 19.3630123120195 18.460630229130796 17.465708056931884 17.02694182799334 16.56361622384215 15.64627995067276 14.659837477276254 14.789300646762126 15.740432733578931 16.395092580889 16.93582229533012 17.069265366529326 16.65285674459275 15.726757108184675 15.368435922631454 15.856298005640816 15.768214367979608 15.311303379522418 14.729127401892148 14.97135172579344 15.11388507738517 15.79962139058499 16.677100109589446 16.52254993753094 15.92345296341567 15.448848146115063 16.002441193692793 17.583378974869774 19.25030209578252 19.563519100910863 19.37977325724178 19.27603415322688 18.535149089623467 17.969403824604974 16.82484167353947 15.785762923036394 16.10239823675883 16.230401394763092 16.20395959576746 16.39533816907677 16.45925900473501 15.790425866324972 14.557951238677044 14.090866517376345 15.53923804718652 17.802379315674273 18.694046621676627 18.244624668052523 17.180197568835215 16.922236188535923 17.220146420887932 16.909159792863882 16.396470396552576 16.328663585580493 16.932189288976986 18.244078004719906 18.68252607001116 18.136954696961787 16.65289311319519 15.166057758477367 14.907836410994419 16.160134334593764 17.893631024431382 19.154789985866973 18.94876190031076 18.11081913087515 18.209735802029492 19.217835611978295 19.330421965549792 18.76223864405296 18.545306886203026 18.888311843345633 19.059932439807227 18.561652350269135 16.966229164364226 16.256834751712578 16.73214594736782 17.768574759253355 18.396291632531742 18.153584398381444 17.737952749477323 17.588177252565995 17.443272580030246 17.541402313485385 18.221032136309667 18.778252239122118 18.328823516784976 16.94711928355874 15.869291485214527 16.374025990722078 17.74404804723085 18.942975981840966 18.624360412627155 18.00702011327864 17.89444605194945 17.447618143091436 16.73879678113313 17.01765623225073 17.620695130324627 18.030672008114394 18.511123118153257 18.71829973157055 18.825178630466006 18.311566965575658 17.630571171812818 17.16577035587323 16.729453014969415 16.071809551610556 16.19678635641601 16.41938973997148 16.530483232880897 16.301616979012522 16.247927049680325 16.683753025755117 16.64255273787297 16.695599891044832 16.634652078374348 16.68790273434595 16.794147625567916 17.14345577686255 16.558467025859713 16.334603999705116 15.901790384640142 16.628738292837063 17.628509671597932 17.87544987620541 17.313101971835163 16.303938662743167 16.796333532778064 17.782125612786512 17.53988137658187 17.131460386130755 17.143505097736423 17.054971387988864 16.39312914776805 16.035652664593503 16.68196809789245 17.326065386512713 18.156113013179652 19.272618761119464 20.101271014380487 19.52651994182806 17.482573869668073 15.394494561244171 14.510252950864235 15.207998211920925 16.22384867608247 15.994118417730308 15.206288976680923 14.725799951742392 15.08611406197498 16.013503218568623 17.044305616065376 19.000616367010643 21.278393629681293 22.24741664466715 21.69893871440987 20.583226682205858 20.69689111664884 20.877322732508407 20.539266637268877 19.832202521371148 19.28483932695892 19.191684036487306 19.268993697126817 19.103243205851815 18.42774040636704 17.104985550398357 16.321784085013306 16.88697782419492 17.707029044467134 18.10287073959864 18.54895296503416 18.79837309982819 18.77954810794716 18.08983176627192 17.737382282342423 17.20447183668468 16.420288790513293 15.500266642805569 14.830448189377584 15.192942624627019 16.271938203301477 16.770944914890684 16.183338731033267 16.025030535168106 16.737810025966695 17.417232135686234 16.88154881347945 16.150382159043982 15.875616537092677 16.566195138461712 18.194687132130724 18.64456963974901 18.639405286571684 19.204735002009194 19.927862181812763 20.526856281527202 20.5260086337822 20.029818784406935 19.30614277062396 18.545063380803605 17.965975420740154 17.64260758605844 16.781123410218584 15.841317982864538 15.609228571974802 16.2644955016599 16.744388922311444 16.853819885506564 17.115087923531494 17.202274070856774 17.366221440256 17.065320740096492 16.809769751428963 16.895104915233173 16.41962992842052 15.908077165335364 15.350032483192464 15.416667737021498 15.089035880251773 15.244531980145577 15.754332731890463 16.014273859118422 16.37624603426826 16.808512710802905 17.530216646311835 18.635704224479955 19.74458724347 19.399639336163737 18.670624090395872 18.77828848362673 18.525887517742774 18.14650087516729 17.059966195916985 15.940896155317732 16.29033880764715 16.947722352711317 17.131608597150795 17.425271742324096 17.44304468484638 16.68157221222758 15.24701050762662 14.268773094000478 15.504573488926605 18.110114369831724 19.61324957972557 19.289663885135454 18.103835837734835 17.476403236520873 17.357260917600314 17.060259304400873 16.79094754345132 16.634240267171243 16.606694746987085 17.434293161209464 17.797424174307835 17.297165962808926 15.964653706447697 14.749487204413185 15.181868409319629 17.05470446967638 18.49483690529669 19.04220684659674 18.606420434007852 18.347841648884213 18.951893952158127 19.4655732793048 19.105628472855567 18.572549089975663 18.345612592840148 17.97687284423713 17.79354449529008 17.513710036351853 16.48895771477685 16.24495194201741 16.57941264307481 17.65218967238883 18.8106345910003 18.875461551888595 18.126992615900765 17.752262723406513 17.915082748216445 18.509790805632637 19.13255543607305 19.431076504507594 19.07773457591714 17.89113352927903 16.81668872866746 17.26696800987289 18.394272784735257 18.775536470067376 17.510223661781858 16.282359703987947 15.75652426491452 14.99887709673929 14.613533816063413 15.559359874536046 16.736666497012678 17.218669705551193 17.24063561077749 16.85762172417296 17.03044124068707 17.597487124893505 18.086783376855553 18.203761457983926 17.35907319708911 15.722506523611516 15.341689529212557 15.993267948337666 17.118679871199408 17.81019392732861 17.81010826141556 17.452177489567912 16.53138551144511 16.211333015497065 16.23526687572027 16.27953065253892 16.34931773407088 16.94720763831329 16.92524889330431 16.71522409014623 16.157458001498256 16.530799234560202 17.376157927615797 17.857474748958744 17.07580835230697 15.515547153918535 15.684253805297201 16.90830533604906 17.39328100634841 17.800432493623585 18.122224385888583 17.84368630688922 16.91988808543657 16.248837639869446 16.399188838087262 17.02090548033713 18.030598292836228 19.013114747419113 19.451313521388432 19.04819527755234 17.670658260089596 16.088023857489926 15.507126651341878 16.43924807823374 17.489467064022417 16.81220526115318 15.54118458695296 14.794179556346833 15.052983090170919 15.862753343410484 16.531461766913715 18.36088492909554 21.033909590893938 22.473014034368934 22.31595467991916 21.46532929748663 21.381643632524582 21.192429080936275 20.384930344496656 19.4202924558911 18.540996138359287 17.981913040779755 18.050965625255298 18.22485817472904 18.206832911859856 17.616989425094673 16.98907248586135 17.460087866904647 18.32688679703412 18.225199556683958 17.8347451536278 17.40121920035962 17.157679643962425 16.6776959423496 16.725650772130066 16.748649491515298 16.589404737601868 15.863417558451035 14.896924100156793 14.802021669697348 15.456579771812347 15.736861203002267 15.184226551108644 15.373452013914852 16.416715774111694 17.371277247075422 17.244005772941943 16.471573486512693 15.859742764665604 15.95533810434833 17.175394819535047 17.50162580065665 17.42392636024925 18.201629857217828 19.075969034803496 19.82459780576918 19.95401872450587 19.327197903831017 18.29552818765142 17.523662772792434 17.57070678958921 17.835935690633445 17.336261452753163 16.90192221570965 17.364725029414945 18.123892116639304 17.71514545178061 16.758172800996917 16.435456984092802 16.630677260834826 17.31595281595039 17.655457482234375 17.59497951303137 17.183849700167677 16.37097269631819 16.024336104504076 16.046876282896797 16.45354458315717 15.95502790377581 15.353529777301063 15.206661555385605 15.642897466311483 16.55175471941598 17.484164300712827 17.99518232771575 18.43008271491889 18.84669775539908 17.999527074086714 16.900657310773546 16.989285643717068 17.120042177770642 17.484073756283326 17.268530596199763 16.677852590403354 16.915821684082765 17.25994995998889 17.261546509229973 17.736794810317157 17.867370834042045 17.377616807993626 16.053832207506336 15.085137851180123 16.27916078630853 18.816642902445793 20.338895360520937 20.00087060147678 18.779947240526557 18.002781900467497 17.57911568389371 17.372675925629935 17.46999376387815 17.466911643471594 17.268609907692284 17.77442319799504 17.857161154714635 17.236781901792607 16.406741586888128 15.537203660519344 15.952982901043102 17.21885473454023 17.884197468704148 18.075626689736183 18.01679813824478 18.45820708807295 19.103860222604602 18.878817856139396 18.34959670384785 18.270227566808593 18.48725245989021 17.930903228262054 17.55649075316141 17.373908060303688 16.65745482288695 16.632562833920094 16.723852064314944 17.441915665445933 18.416214182974766 18.476187209885868 17.28363799695661 16.573822219490783 17.149245214222876 18.543706622084407 19.723145677068135 20.085025932307758 19.86888054050137 18.907002418500614 18.21139325272418 18.463709606088575 18.694329692010054 18.075213468908334 16.346597187279855 15.093488472380233 14.746620880097357 14.416419867869125 14.615356232797692 15.807857344704814 16.9219340177081 17.22846371939361 17.118444601931426 16.374512538260294 16.260182603323674 17.12779836807521 18.429826844412236 19.164050007946713 18.191753885578933 15.861919670846447 14.637478751251653 15.149992691455768 16.90778940880485 18.490380666166935 18.713947905014358 17.81480793561941 16.509307873308675 16.262118431966027 16.56719132427752 16.89821323753694 17.031580999747572 17.464184046264183 17.354398210140875 16.4723336517865 15.940621684314246 15.96460628418513 16.69411836923854 17.791660808148045 17.44107961970099 15.561965138234191 15.049495699631569 15.885743978208163 16.55696470071877 17.371137519356523 17.984390051251033 18.041517038830417 17.84330067568392 17.701466191273283 17.80174271405014 18.3503565272996 19.21963393280452 19.61602800498389 19.285030835782546 18.763837049113484 18.09338667125168 17.378174961201445 17.18796496414671 17.8748594731058 18.31336134962148 17.120276722850733 15.827160103404534 15.395939709309513 15.70079283600119 15.943421146289944 15.974203864008793 17.557780799771965 20.465417905641456 22.209197436586347 22.27132140013384 21.790527388681593 21.788564546390866 21.61753866176937 20.71572855119008 19.541423584052737 18.49270027823644 17.648522076333386 17.474296323367746 17.645246470392134 18.101640562395154 18.33395892156412 18.17444980119363 18.30152345024254 18.300534929954402 17.307585478680274 16.313326916653413 15.92349209458448 16.159735931713172 16.14164183382627 16.421961750177086 16.74552775879415 17.093010855095905 16.911669167538527 16.190289892445236 16.064175720160996 16.42147578580394 16.131005003506097 15.367358937614105 15.551559140944034 16.425190984343264 17.246898414586838 17.441978291503577 16.640871020814586 15.5975978479971 15.234546266719125 16.281081901724615 16.916167815456898 17.104365450604487 18.089335219341653 19.087313544489056 20.06431995720106 20.400682661142138 19.697198505762053 18.145394858786698 17.049602831479742 17.377157013274267 18.07031043615859 18.060257650199546 18.114901219280476 18.746371817714333 19.192287332578566 18.132218557370432 16.376957963709664 15.621596399652784 15.990910855055684 16.819066637681992 17.36239557023916 17.651855979732105 17.459505601787775 16.86260559183937 16.703699296161584 16.903828256614805 17.24709186212561 16.500491410561523 15.32108188383075 14.965173098093887 15.747139092713063 16.79746198601659 17.542580703417652 17.542041389143005 17.442200967337097 17.485115143288976 16.674196625438782 15.687195933822114 15.83854497257197 16.475112806137773 17.58495824037944 17.987216516850925 17.76958371513275 17.655491242581697 17.312724033013964 17.14452908333389 17.737732969313097 18.030707422147533 18.040119992047387 17.06633553739543 16.044535467923527 16.72545887773061 18.796304629774827 20.045103951233504 19.492467912144303 18.08988300853867 17.214882350919595 16.56019340185348 16.269896011042597 16.681191293653686 17.15048155913709 17.326107369781088 17.644716408503285 17.336216886523058 16.780799119949066 16.634347384684094 16.266158647923422 16.28573394013328 16.515540103184474 16.70637114495128 17.088954288599925 17.57476132925506 18.351295654215733 18.763234309805572 18.018294542091184 17.485471138044733 17.952188789416894 18.85944511869231 18.755131878292385 18.250934586706048 17.639465543606477 16.75440497734556 16.646162377418598 16.46982088650304 16.82021475192578 17.4485125556939 17.763243212036144 16.81027855130912 15.960678373940016 16.383097743678647 17.614958634766406 19.05118575731062 19.69325505897766 19.769798256463847 19.28749301621055 19.380005543998376 19.46447236219912 18.548019386465512 17.2619381859102 15.734641621569237 14.855291443104296 15.193518541430993 15.754464796484122 16.205897804652697 16.671356300441577 17.01805502388418 17.151512945629516 17.233065110622373 16.647745198479562 16.294062996988764 16.970463629037102 18.63451693751123 19.588278542675884 18.66985965883494 16.357927586087545 14.631102252170649 14.742331023253975 16.387380521052865 17.93905627811291 18.10053040253285 17.186623594902787 16.506908532391297 16.869811335735122 17.262460876160024 17.620744821239537 17.779223202439166 17.886363426455382 17.364978947169856 16.458921085392564 16.637234214785227 16.637510610877914 17.085718730839965 18.223640178011337 18.201212215201664 16.367472704141317 15.484542992707738 15.725762470174413 16.061825510725903 16.94042011705409 17.77987882629379 18.08269955550137 18.460103517591513 18.75696946098743 18.900417588208594 19.35841786741113 20.122500102973934 20.404145272257637 19.956309963446916 19.48065630114501 19.259822575277155 19.02064357760471 18.95897135327879 19.136623047268717 18.741696376388976 17.427679769790355 16.590727877805897 16.616614039700092 16.65179883967088 16.15238326275956 15.886628905857439 17.410403541607515 20.050671676321244 21.57067577748741 21.651691949634245 21.501059079554736 21.45921105063213 21.200657929320396 20.1834936085282 19.00720295094358 18.440406363608282 18.095812402150223 17.94152646320403 17.97850297799483 18.470479217181154 18.95943346799023 19.197322048734925 18.79828528061713 17.470482432589787 15.846427161604911 15.140367169549636 15.459606547688372 16.21854223437853 16.56516131451826 16.921147996379478 17.219572786686037 17.548044723092325 17.543094465496427 17.091051421540453 16.865262372632426 16.89650113596221 16.19985503167667 15.589968627697846 16.01392853725519 16.915948536231074 17.658483074187007 17.936347329850502 17.165393890498972 15.924484702649119 15.43193427961335 16.52141147751439 17.58882772187215 18.20867283057813 19.2811353564203 20.00599035960946 20.53046879102033 20.524845382946133 19.65378800898561 17.887363208066507 16.987620971033227 17.645796444367193 18.472590374832915 18.810398627021108 19.287959765779426 19.61105427688965 19.25903115381636 17.831626557159634 16.20172335549463 15.605218399332845 15.897028933501435 16.554796121719274 17.169354815648127 17.697305645934364 17.55407177074185 17.053479260445325 17.043551547229505 17.329985009394843 17.44146428151931 16.581963383654447 15.434864578218766 15.18561619342036 15.947960700401435 16.67153976321193 16.988471650134453 16.697306147653197 16.78840885571716 17.275477977177253 17.127610294333593 16.57444341068335 16.725481606837555 17.324108236087284 18.326584195205207 18.849953208750513 18.862579527458223 18.412827733514327 17.5434693386123 17.123077079554754 17.564138667756865 18.0439663186363 18.39688725146084 17.763069471417804 16.674419328290057 16.736338711546082 18.233885454832386 19.190297328840423 18.431558650552535 16.94485012076906 16.13264506468329 15.631379149282964 15.516626170974954 16.138411681213118 16.809751257644713 17.26565330383091 17.20264536110879 16.40888086843535 16.066109002478353 16.552845844137803 16.82477551725825 16.57119300131111 16.162971424052362 16.1629545786585 16.535877237521085 17.077596548050703 17.810830068399632 18.159243795740064 17.32651144286951 16.943592671606673 17.77066371455601 18.93985444562141 19.20067867386943 18.687612477244983 17.717359594713294 16.720222229371167 16.413601446226497 16.125600136071295 16.644391171064076 17.31225023664802 17.82746409457437 17.359652852710305 16.613080362306857 16.506985178896016 16.783021094576057 17.725745247725932 18.381457572832204 18.82340672951247 19.04909697837558 19.975294978079518 20.265960367589706 18.997283401817914 17.750828748901434 16.510204916750418 15.705960925484236 16.440440203919707 17.54674717605707 17.665442456447806 16.848938569225822 16.341985458643055 16.33251165241454 16.50155375639803 16.30924860774718 16.160085693212405 16.815968355851755 18.553294300451004 19.282071014033342 18.529405392989613 16.88451155313543 15.337818827371763 15.160006461130768 16.40014739401126 17.50680753624435 17.684201363619998 16.917501422133384 16.71435113259199 17.223473022621302 17.37720054944874 17.545601767782966 17.71491976705597 17.439544846123145 16.768208608292017 16.952039889731054 18.114084227459355 18.584701522061827 18.794454384986217 19.278852393281362 18.822311178200138 16.901832483241012 15.880142619345033 15.588960563372611 15.373029135675754 16.144710575720183 17.082825010048687 17.494937446838332 18.22232562810811 18.595535060494395 18.39664335165965 18.503037001859223 19.298688531825587 19.86938914042556 19.558554501813305 19.028099881075835 19.159460748962957 19.540286555738994 20.016291113977744 20.0155958835377 18.92856969323192 17.589668509951064 17.103626061550518 17.420570250321358 17.198332513710525 16.481789528029434 16.298775357592085 17.73467195815389 19.66153500263288 20.70456260489002 20.888748045826542 21.003087377637563 20.80836653573586 20.22631495444395 18.929506419893638 17.941067594120703 18.13175164315706 18.466376153344743 18.068378676808617 17.779914503508472 18.101983591431388 18.644437913913453 19.30385372957178 18.795256757469826 16.797923726948124 15.119226009008301 15.092133738939877 16.009958017225582 16.72743691292944 16.898190560045425 17.217052596720343 17.451577036838785 17.470797275509362 17.304789247133602 16.840879914688372 16.22302510594112 16.02353300645156 15.674501008001322 15.825310284223367 16.53595746584707 17.147329975127214 17.659524226273707 17.84827717809348 17.088492070722477 15.848762165870212 15.589006455796483 16.850594154056246 18.2972496144599 19.139509673948364 19.81512009795396 19.912238406515968 19.837053052691004 19.48872488334089 18.75053287634383 17.48258746846259 17.278031349688817 18.230003601382307 18.893238489454045 19.21404137674535 19.62244511182289 19.163596930739764 18.103069321940396 16.952846364122955 16.417120154916123 16.515534699885126 16.6038732916423 16.921192533682706 17.445112292143744 18.025202182927263 17.815326229249276 17.299702784361173 17.336864996692523 17.66148058975782 17.59862041094282 16.80855999729271 16.066616193036253 16.15652422980703 16.709498768058914 16.785621842067634 16.49902838005458 15.647581275563123 15.60805287821666 16.66588955773263 17.663500728272982 17.97958268895361 18.08436659247226 18.209544925507245 18.57440710382467 18.925482121955504 19.32407926323108 19.05920850429294 18.153203591279894 17.4568378613035 17.652611598602597 18.246325620433183 18.363946009214608 17.390585247827467 15.961630514446135 15.807540447056084 17.34345284212292 18.36738485622529 17.85416782620579 16.69671498192208 16.038097918419172 15.880836270175163 16.167121088129306 16.800994749043223 17.189461450183558 17.665350293602916 17.4411138318978 16.576106744580358 16.26225104544644 16.586389261557393 17.03323394486001 16.686604258934658 16.200235367003994 16.140107600053902 16.34287790805426 16.923647851266445 17.692225061033753 18.055004592000127 17.44974001253571 17.352826181348824 18.184058047218105 18.83675379940072 18.96998516715446 18.708098393171156 17.84082322307072 16.935085837926067 16.466192628651932 16.009396742526977 16.549502119205425 17.247086534144312 17.628246922463795 17.565554378592996 17.296323668782474 17.076479296330387 16.79259948309246 17.148491108292923 17.439697810282055 17.883482673180662 18.513232119066632 19.86157196639658 20.530674463049728 19.681349152458758 18.80173234336364 17.617492823185678 16.624932031229715 17.19071767718276 18.221238630343876 17.974954226867336 16.584876416603457 15.92161966788722 15.972586279872136 16.204699428413594 16.319442970316835 16.149440542718075 16.623842516658613 18.10161176890778 18.525379237821337 18.196281586078143 17.368975997983497 16.337113550502803 16.045181737041474 16.969131381642253 17.990470122646133 18.461176752043603 17.62176465647351 16.87361349781464 16.618778367578066 16.24650571810859 16.45160079565496 16.974123382822675 16.595436781009745 16.218849070824053 17.32201370837234 18.96638092733609 19.80553833456309 19.806567158528562 19.574282141561213 18.63131309144749 16.8052599081302 15.943342947152724 15.57670887894883 15.164894579585324 15.916252037257278 16.791736109596435 16.950152371043092 17.562563314488084 17.94736402523914 17.504312439131652 17.211437675957775 17.954042197951175 18.724788441294113 18.464852038352195 17.727635895919363 18.046798682801608 19.12485932172438 20.33175494240003 20.825002998104598 19.87635298893729 18.645219809095437 17.958602820275377 17.712468466040107 16.922133990993498 16.43219775014806 16.743930863721584 18.079226588960573 19.38896189859109 20.10861543393503 20.283907531470582 19.93737014513645 19.133690907922283 18.302916381672997 17.110984823143067 16.555399272033995 17.470438183191188 18.38845833899303 17.945200830639614 17.895998072420113 18.348371635150425 18.72593353025966 19.032224242421773 18.383711238066937 16.54074088639158 15.067841641541726 15.221499842221256 16.012735034593554 16.58751627349889 16.74487573723448 16.796465096505337 16.665333765422915 16.58381627457659 16.685592565225317 16.32326898861311 15.306879433451314 14.963984599533802 15.070210585696671 15.666358445790484 16.408263575549537 16.498676016935306 16.54329464095718 16.708257890242884 16.41254642664215 15.719907230380052 15.951923633429264 17.307967583399456 18.83223488251093 19.397767904429674 19.402488171688603 18.997506030175014 18.71058491697986 18.333995989282446 17.992757202023963 17.51260545083893 17.68017744268739 18.32679396494887 18.494803014969033 18.491937271789993 18.46417022735508 17.322688728490867 16.243774069558466 16.122643601254218 16.71502797407646 16.850334462173635 16.441591623033023 16.55099171760801 17.176131514927157 17.77286663719671 17.539209759495847 16.935765461366973 16.925756072927168 17.24397669462311 17.219515428852567 16.665354975351462 16.419931252517223 17.263622164547517 17.86172005873739 17.415765498931545 16.455812974946642 14.876973721403644 14.283286224007085 15.307551728155198 16.905631631299173 17.854819657912312 17.94283895901613 18.11610789635058 18.681685146447425 19.36716362246672 20.16568933756993 20.028244892834675 19.15735137293524 18.52567530657708 18.47915662858294 18.81678886109207 18.789932604395126 17.683460559733966 15.743543979255174 14.81753032526654 15.945600098074353 17.27976236390652 17.722307855392167 17.44091396880267 16.923156071066284 16.836140189800513 17.15601420990029 17.372443955942998 17.332931872781167 17.694640286274986 17.56047114117483 17.20308506860839 16.991800205482853 16.665088422213724 16.61529689276322 16.268751225462413 16.05684590136766 15.814420010439697 15.734617437373878 16.34570795657836 17.542803756660355 18.20313766772471 17.952810330455364 17.923763125831613 18.312163621295277 18.13861250669811 17.665953325052026 17.427941478472707 16.851650085401285 16.567451579024958 16.749279371825423 16.607842568713664 16.929187951267387 17.394508566364614 17.693259443811268 17.822492671360536 17.54741030916521 16.950886345567874 16.501666464663906 16.670372000856275 16.87338425822452 17.461310736319852 18.410227271510383 19.583552478418063 19.993923444052545 19.40106732163148 18.804531986853995 17.711676081675048 16.951853102354725 17.36255139350769 18.071341470130182 17.759318047945918 16.688813959071854 16.282367006214372 16.22793872899726 16.264369677897573 16.446814881749773 15.92309143941379 15.762726813550373 16.64312155622597 16.982096900000773 17.3629769069824 17.328254601884115 16.78177549609923 16.541042240045133 17.360995392900936 18.608876393744335 19.537552814333544 18.79606592581787 17.244167924817695 16.000862717887035 14.96443672667089 15.339807503848936 16.448751436955487 16.3439252