# vtk DataFile Version 2.0
Ocean Simulation Step
ASCII
DATASET STRUCTURED_POINTS
DIMENSIONS 200 200 1
ORIGIN 0 0 0
SPACING 1 1 1
POINT_DATA 40000
SCALARS Temperature float 1
LOOKUP_TABLE default
13.646414390103963 12.837101358565112 14.10901269563886 15.676368202172377 15.192342210537573 15.088464548594935 14.232134774119523 15.814416523303747 18.461658683005705 17.072452559909497 15.317359411510736 14.892490719092454 16.57654554080958 18.172423241191247 18.279334781683538 19.453318114712655 18.803376240030918 18.685726383230755 20.06826841693305 21.05955267437555 19.17903319309401 15.993318537230307 13.42685528524755 13.019322035834158 13.73424225673311 14.273415980001467 14.740152867551688 14.505133202306142 17.43010461631812 20.183918778325317 19.761990543604863 18.321179436668913 19.270907147426644 20.649287041000935 20.42514622280191 18.221315164671495 16.9636719693202 19.264982701813263 18.465007472729187 19.47530386614596 19.8142711377249 20.633361159816108 20.107677834343562 18.810071631860517 20.108033688748936 20.879545260978166 18.360146611185545 16.14810076473692 16.199635491578157 15.700387064209448 17.060117719823513 17.765035390377147 18.288367850152973 19.669063880261294 20.357582622089698 21.00672750424077 18.229800436718307 15.301873706747813 14.796705721191826 13.77642803331531 15.420563998747598 20.008115671143855 21.533794861087735 21.094729444757878 19.14067159012003 18.070500500582398 19.509225259064394 17.71357881669125 15.46858692442887 14.357742912678704 15.697970874283367 19.037407034824646 20.555591476032916 20.443018183319683 19.311894711353354 18.331413766543854 18.677767031473543 18.412819569062933 17.4167351699091 18.167919218791795 16.78501479896224 15.13485317451249 15.622955048871775 17.3826970169182 17.07167897318786 13.946162932321009 13.118990448220933 16.069996839597433 16.536662920683447 16.767841244956436 17.410713943349474 15.670326402694442 13.559261483088124 12.789708764795117 13.9248432039261 13.401686966477044 13.182786110781779 12.949150804995716 15.156817805339658 15.925978505305496 16.464068815993677 18.343832207963345 17.298789096965823 15.738348386306438 13.619024831166527 13.714701801191367 16.119686379223374 18.16701950710946 18.33662431215016 19.307345721609778 19.17325729861908 16.325053261769913 17.47230387947912 16.95366543895685 15.228071488861696 16.948250714272014 15.295085384556787 14.926851135503588 15.63208662881699 15.74943540257726 15.59161382319235 14.036758232014455 14.365789012517679 16.83182434898427 18.66237476777643 17.062815235636833 16.929882900243115 16.012409148961954 17.190229252835888 18.79046233479478 18.524586758634868 17.10250096762756 16.58875630431938 18.184674231820996 21.019218821221788 20.609460324803955 19.4242079129342 18.57180364857677 16.984935750993237 15.483309479862738 14.816846768962442 16.25895669492718 19.015386178084693 19.603951095765012 17.68410148580938 15.961543544706009 18.645464957107862 19.78242301424108 18.995711565229893 18.155679309595108 20.225127031802867 20.91825214132977 20.83985910601089 17.32781639884179 15.978984816002454 16.91189396926371 17.964298662169305 17.420712509177168 16.335507724144414 15.411239427474927 15.754403723385142 16.34877175371938 16.166890756120598 18.578661946216936 20.012389019226514 18.69439888289879 16.46132341424893 15.14627795328163 16.483188892986384 17.381333796623178 19.925475785853244 19.885886166671668 19.221897948855247 19.767915309017443 20.621602360124363 19.059014785422733 18.614405355563967 17.47515121035327 16.915874197159965 19.4382276361029 20.317691821300446 20.921162320712483 17.496681733937805 15.59647147934545 15.60482382127185 17.560347078479893 18.15568260312545 19.173644861554354 17.971225034750493 16.665883833506705 14.730498970732793 14.249204983301466 16.324486517055583 16.41908801587656 17.090357095455722 16.40537668285177 17.856333632166415 18.37665477485517 18.69921488064589 17.04724880734519 14.358076007086304 13.48102623599758 15.909077478364281 18.140376949994863 17.928910145637243 17.950421948395896 16.17421659615197 17.008390009204636 18.65201509922492 16.624447561458247 15.395612921892035 15.46030521369378 16.75600026452387 16.93195058594767 16.528802461263687 19.392660454669056 19.474822539851658 18.899483865908298 19.773361922010523 22.05131645925018 20.943501047697527 16.863921823528457 14.148089011250864 13.178171798669752 13.799439877060552 15.505168917669646 15.403199250769012 14.489033941787708 14.939804269602927 16.283622274509682 17.164080639232132 17.516968874984073 20.20408333348158 22.475915257984436 22.32959010478842 20.736586553070367 18.037212968342402 20.06784843600008 20.15387044902963 20.812964052235454 19.980075332029898 20.526418727762326 21.621962105943823 21.220463141282522 20.758995571657046 19.507019606134993 16.371379505950898 15.634804134567606 17.05952510471145 17.18462135281394 18.319935642172 19.896721877927366 20.592504582780922 21.174693102189234 19.162886995028543 19.11479090725756 17.87543766375469 16.359999838689603 15.604178521230654 15.024053182267709 16.686158038618235 19.839977739164325 20.226583253612226 18.167588439505295 16.20305121801132 15.800571985330631 17.08333900033748 15.52540852246657 14.666012685973483 14.48163597180966 16.624024735880326 20.418649374718203 20.662032741704113 20.942407981721956 21.14715245798999 21.146268810797473 21.61046454685163 20.955470012358518 20.63963260361978 20.502600572252852 19.44301070916002 17.405549567983343 17.007094011223632 16.59072586252124 15.386190176379372 13.301500551501247 13.578372168557324 15.592273304583749 15.781015104495289 16.8278764835992 17.24322271418748 17.09105526884717 15.00904744100965 14.37310104029036 16.811977183585665 16.844249684302962 16.362579650926914 14.064235079228355 14.88591423993814 14.095098584802704 15.42377177014805 17.9488449501795 16.97403161720229 15.684260180145618 14.212415739454134 14.783836815034254 16.95030300086805 20.444391599098278 20.414139252050486 19.983569251401264 20.625029533489904 18.8048869537271 18.588483729199343 16.371052384781667 14.240313211119462 16.189539995908234 15.639512504392558 15.527795542491571 15.883143748655506 16.61382834678489 15.974694577698772 13.69397428649577 12.176136363064675 14.322029880317597 18.825576453351353 19.675589012223927 18.947178302031332 16.03503316162103 15.68395631740613 17.263813761442847 16.234672022716065 15.424713472262221 15.497698242129887 16.022121408734574 18.871022633092988 19.252654836372233 19.134839289441164 16.468625649251774 13.95804909832807 13.266882707600962 15.462405165676522 18.232268885830504 20.638253688475874 19.842503613269123 17.298069469261872 17.236167110724356 20.343877118041572 20.022150258714134 18.135540244442073 17.78617743258147 19.52711137728087 19.802476994785835 19.63773507841049 16.060617204920806 15.17082285968891 16.351621381984863 18.338330882594406 19.236117128584834 18.252919374133043 18.3072752686677 18.488816260138613 17.159845359109287 16.155145046210986 17.095199221211537 18.674501844843718 18.560608405363123 16.277747361124888 14.222719397741708 15.166400488036091 17.23264032808851 20.177024673746597 19.03716030718898 18.035936444143907 18.91218164861301 18.43642486610169 16.22034563975339 17.28580723491358 18.54710459557387 18.874232795539818 19.418362962570196 19.486184210038243 20.16594646981589 19.27120532964328 17.869437510899584 16.899826520274708 16.19551602441712 14.55346898220585 15.572159216323486 15.936565591284737 16.129616714584543 15.446947638529142 15.276128489235091 17.11976600873465 16.735473374631358 17.261324773636936 16.80822326561002 16.611763675925964 15.915854243488221 17.505504599467535 16.865956720709338 17.068671960066872 15.735946473656645 17.055513472408826 18.566351550887607 18.39239659973844 18.192933407266057 15.737999920211793 17.380796510761595 19.472920863483907 17.976350870803962 16.74050980175055 17.109263247427318 17.239862039136828 15.488638531262103 14.481072672744988 16.30742160529465 16.654476384071728 17.672132271665564 19.192784033208294 21.018881190601093 20.69062070032157 17.591089580565615 14.78881961676331 13.364735638209508 14.84017638521081 16.862478606659547 16.051492174136737 15.170778530393 13.720060055183511 13.763447663157155 15.33757283457731 16.20975079330093 18.67391132050072 22.140710062760093 23.368795945766003 22.627552330989765 19.707847421105004 20.75749040554623 21.6494375807685 21.228638430413596 19.9480322311969 18.69962578447897 19.150941941274297 19.692917798467963 19.307556973988383 18.612092578843193 16.267473765219297 14.956994319680495 16.74742208254167 17.873270154640405 17.481167752648947 18.61261072161994 19.196759359607853 19.8667573730639 17.926445523817666 17.86510828782483 17.370808058309585 16.391214969598604 15.148114785494784 14.109922499883561 14.449047290078099 15.832726865099824 16.91384952231103 15.288241720588825 15.394609100781942 17.15123546813644 18.72774310444288 16.857334527611396 16.30331076351251 15.792466405637068 15.960652240960762 19.38437941489287 18.689903702765708 17.921635505819598 19.102926028898267 20.33318976607305 21.483891205672798 21.38347726915272 20.797427910557452 19.862920051399403 19.30249772237451 18.32136233697704 18.509485967657806 16.61368499956295 14.823342665151703 14.472429763069222 16.26803293931645 16.99772186900629 17.19904525406873 18.2006098980979 17.37861217131467 18.261835674207976 17.50139598047843 16.734020624138466 17.933338694188787 16.741660444094283 16.54417149219106 14.73330979377238 15.517586805751135 13.941391690668866 14.561174903675356 15.702012626993533 15.736301387583609 16.74911372068246 17.185409999828824 18.195604630231703 19.28943889177165 21.655231407975737 20.27263767480406 18.332548188915816 19.974192927341136 19.635083080355383 19.409305659966076 17.400946207449014 14.460360466171533 15.723332086815185 17.980804768253034 17.793302464127503 18.095829307937905 18.36627809326705 17.165508931001984 15.459813622813193 12.681918681941898 14.023665489211579 18.290965067800165 20.679790008166577 19.717933765356896 17.82337943587316 17.137753933204685 17.419455684216732 16.818224257093824 16.400730154343403 16.40336835220343 15.099314727641934 16.76873490454153 17.297976776803306 17.31409806991575 15.078420782790252 12.881857348685294 13.866180345238702 18.22486352678831 19.836369193920106 20.203058718499 18.394769885207182 17.618198827381008 19.5120010985256 20.72902836606741 19.395379714636483 18.469348393570776 18.491383159881263 17.119157420999596 17.014738209221424 17.482909438787473 15.437199927137973 15.985197436223062 15.786591430548022 17.264224704431154 20.012646425898673 20.0430534850124 18.54614945726048 18.497981744199468 18.6917548078369 19.38197343127616 19.395390888994367 19.639262433369126 19.4342308855226 18.148045681653404 15.493091161871055 16.719248586474382 19.14816925830579 20.323706897782287 17.346610362317243 15.334834322360441 15.44303163971813 13.595470079217865 12.274845100541507 14.225745683816413 16.338875147062325 16.77104613583874 16.56765792546539 15.234347673569093 15.869079456594037 17.52914147837662 18.297377582738175 18.74734903702722 18.012142769452574 14.50893184457211 15.063771458428059 16.3052965562868 18.219885631626333 18.766003651206194 18.09986226310058 18.10335755679895 15.93376291592916 15.647612924305625 15.844950244672257 15.62017776270034 15.023209313018883 16.94968857010148 17.054439851606816 17.245729752198766 15.82210376334445 16.724285594146142 18.001013222044065 18.661109687813738 17.03011923862135 13.524062386408483 14.684354290545887 17.74474862081227 17.719086956781638 18.703150136643746 19.44272558154375 18.922561896846066 16.556424863408914 14.929747367826838 15.023650341203377 15.708405381968584 17.06658132676156 18.7897988936334 19.63371303529322 19.70561895134321 17.95679633306603 15.145384415037729 14.027471201015997 16.112118328565682 19.131132438118502 17.597757218382903 15.445129949957057 14.054057047115474 14.314389029076702 16.38328952386712 16.031127514986792 18.018120803578345 22.02566994882618 23.373865470401707 23.065182982917882 21.12996712956357 21.621940799163372 21.266501253255118 19.58878875748536 18.901367273344444 18.04270745543551 16.913869445858083 17.71268889205983 18.309451482929283 18.77378512950574 17.84369824606224 15.835326090782036 16.683298456595306 19.597004219852174 19.086241352819147 18.702743061338207 17.32946671483663 16.852310624250144 15.575823473323982 16.506497402344145 16.562170076691313 16.907123485034603 15.629017164666882 13.459969642382445 13.139990777702332 14.291688867732486 15.579891887248554 13.902670297358952 14.331370768525199 16.23347352182798 18.272686675237093 17.737672489355727 16.36394423650656 15.948625943076879 15.280360519729403 18.082087268581358 17.568575795906042 16.286328656298735 17.948885066032794 18.61080711298745 19.331927106180018 19.392707472641472 18.3777695648541 17.365056716304768 16.496681899590637 17.2716549458253 18.41326564431735 17.18627207600837 16.23327643519796 17.5316164942216 19.643278438563556 18.175937527120503 16.371600216094496 16.387602921306712 16.08430145247783 17.721589368506258 18.58421169033506 18.4045136601137 17.226686991157692 15.221754069348277 15.192718543394488 15.495764495546002 17.45678911332497 16.263407385927046 15.531121254892243 14.810790543596374 14.867056617673661 16.1808674628021 18.12533661683192 18.492810045430318 18.66187714480141 20.139290446062308 18.266019723948705 15.647931252838461 17.055365541117233 16.212886238722977 17.07179866443086 17.315649895469345 15.900693139297031 16.84779713068598 17.93149026779657 16.68190078422186 18.06604200543973 18.220811253257843 17.85717184476701 15.682996262331894 13.637107417800374 15.983922799149164 20.007504068838184 21.953155157205373 21.143964906408872 19.319009563258856 18.74532663728931 18.30102318803201 18.342976363547365 18.834486223339695 18.705908310563558 17.077103321164962 18.500922775748208 18.920066047262363 17.515659412540206 17.004136558136203 14.778279017648416 15.817492276323884 18.55194823223504 18.411445623426854 18.077830868781657 17.30674722615136 18.339908641283397 20.115940777645275 18.9725079492667 18.081637338350458 18.02440051904757 19.170273550157066 16.899844388550477 16.603467476524386 17.84353559225883 16.236501834274158 17.1491807995093 16.630908240355808 17.55862757811965 19.53461620582419 19.659426185321344 16.435341652446525 15.242777343483294 16.461714383476327 19.4781524677745 21.077506617461967 20.69868132820017 20.909835310837522 19.212760121956105 17.56719564965393 18.507330668223954 19.695534462472647 19.177549255714847 15.654659255982791 14.217934784309497 14.284057355271182 12.959048113150637 12.990705648230133 15.74033071855268 17.837076159347106 17.375617055116656 17.6303653450598 15.36334673370859 15.176229749857304 16.830797386944973 18.62178409630326 20.46891589030014 19.422585966208672 14.779412604812645 13.26905323231153 14.069061080702056 17.015154497622742 20.182044774532933 20.495855745397545 19.061910608882986 15.644790555937982 15.424977866635839 16.370109646255024 17.219530982826953 16.68509497730116 17.781784162329217 17.816786895930875 15.941631636948213 15.006152352887804 14.781833435669215 15.52856428201839 18.60389980937791 18.524278484273683 14.130890389987554 13.436837771012854 15.494131627340291 16.02862200678961 17.26904267678318 17.957819803879577 17.941185486356865 17.98268363324056 18.032735154106877 17.7551098279113 18.268173254399024 19.82234253590126 19.931173638229474 18.37222051056494 17.762042865976174 17.34772058614077 16.885950233901465 16.62766326247195 17.98320888091879 19.81947706938182 16.852323104860957 14.785769195913161 14.357356540628533 15.656848690385544 16.533578480740328 14.720813011397269 15.964491559977564 21.085156746233306 23.37960912317105 22.84229473435925 21.626306901083858 22.391438048364506 22.67595769488052 21.51229426242016 20.114660748819713 18.637406492233783 16.67334555978527 16.56397078363861 16.592944794472775 17.5948460701337 18.768757790989827 17.88182998468711 18.356109527317816 19.78517482850484 17.768466923278563 15.68848522295071 14.71976800533777 16.016371175340613 15.268491119335863 15.91301038507423 16.289702096319502 17.40052901982427 17.771449910639348 15.982964319253057 16.11156485213838 17.337476225189075 16.974933046100347 14.879204100115107 15.258583545443214 16.089436519567467 16.856571121922574 17.858219824422637 16.403493279511853 14.782058337911513 13.50151576469869 15.859121491996294 16.532704063674398 15.460498875516265 17.247018819857804 18.146555623377285 20.25723967797761 21.29997838964362 20.685767000457183 18.310346149981054 15.885117398428124 16.871118154093693 18.620308668478362 18.049118951845564 17.489714267797666 18.71419535104697 20.72029886166821 19.115776039667637 15.517529450920973 14.330321916800626 15.648928001179764 17.065040801405967 17.23153877407976 17.731073309498793 18.007312688331055 17.005213223574497 16.99173250264797 16.93834627779868 18.4469614653955 17.255007836441926 14.652789830496452 13.91066103948612 15.879883568677036 17.32428423626204 18.515870593427284 17.846092536703694 16.6828612934461 16.99034931814864 15.513311250166952 13.576400135177453 14.390839147080506 15.029213637435639 17.888705492910564 18.21741215672483 17.457940796464825 17.9525420663457 17.071066171767164 16.417806105980173 18.38107040540774 17.980965844693458 18.94561159004621 17.232160653772226 14.975128160463356 15.917558391916538 19.62219839335456 21.25703991734804 20.23788620509148 17.85808775400978 17.454004059061397 16.305529869137082 15.420480135497412 16.38216945382523 17.42200394716533 17.008369211016085 18.374083407012343 18.007509856893087 16.556211948064227 17.208336953129155 15.922501766965041 16.25794772994704 16.20482956909563 15.922781979256854 16.79438535362354 17.565427488816386 19.069549782690043 19.780909238460882 17.710064728494515 16.78742518943234 17.54266535888705 19.93376649952786 19.233749496018245 18.509156348265112 18.267970727303663 16.095936788679676 17.191314545842364 16.29594923627667 16.21223804653526 16.53606643531266 18.098565983857352 16.01539035152766 14.209784571138737 15.44384256925384 17.372047821322337 20.176310823489484 20.51645118576148 20.725075416250505 18.908068340247908 19.712380493334802 20.326308959146953 18.100490860700855 16.38610198998655 14.479058735627124 13.541718295678958 14.763603471300879 15.52850231472379 16.25818875183515 17.41808601666603 17.721342867022486 17.484652585149984 18.608096773180343 17.30014529531486 15.963755410768112 16.218304321398993 19.066701004835874 21.116358588976 20.00590141658678 16.08013140126068 13.154588242353379 13.444369949578638 16.037950657855653 18.817528884092493 18.44813312184718 16.672521069863564 15.505693275326376 17.260758100976112 17.440312222249386 18.25717059861709 18.082235625043275 18.898029916163797 18.239979175313913 15.626405040423553 16.578713355319586 15.419285939120464 15.350482454333093 18.252551611564016 19.700691264231242 15.875260397249358 14.93898858942463 15.995158429607901 15.998815036073188 17.361054572457107 18.66494147649213 18.406466548106536 18.91204193922074 19.57245692271311 19.783623417957532 20.47857691629432 21.549048278325138 21.616708314201336 20.589087505238037 20.241779182953017 20.30755768634563 19.787744943298993 19.053400838029713 19.57749821949976 19.669001983256003 17.314425782717805 16.466197624623387 17.013398879639954 17.40025108677387 15.875369455424229 14.501763675892295 16.36421377534226 20.939187800729176 22.703072493714107 21.62243699937367 21.362529816126525 21.31578525732951 21.73658207475323 20.702972934274026 18.740081488972884 18.522513945231545 17.872328209775077 18.37402106403299 18.30816071088643 19.293266058349964 19.85945483147103 20.11260964286262 19.569855506485915 17.444852880373315 14.774555678718402 13.793373147172538 14.370961903888702 16.305671800475128 16.875419347430352 17.199505628289412 17.027002135009546 17.912980010664135 18.38181055163713 17.60609435913799 17.570742816201182 18.553350062393907 16.406967840523706 14.601761499752492 15.521252774006665 17.29889396346601 17.93481998751747 18.817542102501054 17.893499912375123 16.131151524924395 14.563755607340948 16.848865968947447 18.126246958484213 17.826495084658887 20.217507689483753 20.82726890512279 21.582551544095356 21.67099799470875 20.98944075515714 17.4325814114008 15.7113609722748 17.36026254654569 18.69907963534321 18.60261269056824 19.668271596803542 20.722995958775197 20.578730375305735 18.462818739351125 15.288741232627478 14.319459673524852 15.103938648125228 16.06507031910872 16.718264604636776 17.86553245264019 17.525085460438685 16.43299072005929 16.749242412738322 17.194018636495144 17.874178963802418 16.54550326556779 14.439703935378992 14.058531781809302 15.691916703788761 16.755857261588947 17.248573145594282 16.432142949839214 17.13509455938494 18.232814363345742 17.422098590953087 15.579875160315366 16.228710338529446 17.01842144666826 19.146008965980442 19.89901460149231 19.718852323966182 18.854960988872552 16.868664682608102 16.56344525620402 17.689041339325655 17.57837536572201 19.26897837186515 19.126504936370143 17.38342679925252 16.510572754301386 18.390106487446214 20.078202069439744 18.435930818531073 15.728263470226779 15.582605860815532 14.878767857720938 14.041580072432792 15.245682676937035 16.415214242412702 17.22000749516112 17.2135503371677 15.0996130863858 14.717925247859664 16.8294900023418 17.413880888180273 16.821534522222617 15.531895584399031 15.608534051445554 16.382749257378066 16.542065445689445 17.436736913185165 18.802833643229075 16.481330247621948 15.484621351286282 16.912744905200352 19.603897049075673 20.018454936600786 18.900594558369825 17.343925414019722 15.835993973726499 16.45249600665962 15.420574371643706 16.92479676801454 17.178907509491964 18.95501886586969 18.15315568918859 16.27954275445457 16.19993253802466 15.425730439894137 17.258992305885666 18.067383863146617 19.12339531647133 18.595442153511257 20.935375706291275 21.74524075827666 18.25775679814407 17.32195469299961 16.347069756746293 14.642461216684895 16.6475340180709 19.068685506921614 19.199488139110898 16.793486657613578 15.743509909236161 15.837451604661222 16.31228203734988 15.835240219229101 15.739823994625597 15.800806187265172 19.354586038653917 20.173844214847925 18.72214736402489 16.96703675367902 14.341442875520476 14.042318874635532 16.430145359030355 17.27566353703291 17.39676117788021 15.653251697174792 16.450149770533066 18.44479679536286 18.200677569834653 18.059424553369496 18.252731814457874 18.04818439888231 16.445159687037403 17.139752810624145 19.323994412293654 19.400185693911798 19.074094929766577 20.363515015166424 20.498197067389054 16.605544555128784 15.947729356405945 15.767145513394349 14.33457481637357 15.673100912760331 17.16423304152798 16.83409195743841 18.679796867067264 19.14119108974623 18.180633371765083 18.175332486400514 19.588515913058412 20.75735642411572 20.12906580048554 19.067448424241746 19.77771178625706 19.705239971545222 20.597811971408237 20.623722671636713 18.22833350193683 16.30115638237005 16.164269058999785 18.2412095952104 18.250580098726832 16.572660993183906 15.167066177005514 17.671638662144197 20.032881158154968 20.75232451035599 20.25273286327119 21.643878665441147 21.745985909043764 21.425286282055364 19.04884270497835 17.369114171975948 18.29784283392592 19.40914580856262 18.2824293599711 17.050811831087977 17.578798709729547 17.831342798612226 20.41126505426792 20.271770668595146 16.090630764442924 13.64572428530543 14.602549760380908 16.915608903196098 17.548623402958864 16.684236046497084 17.643326685095577 18.51750285518374 18.148883771350597 17.34056614429867 16.937026172905725 15.993404320728972 16.499837076963114 15.318457946570332 15.909038091763676 17.186434662135454 17.782454253955894 18.677507554070978 19.220083420027446 17.73426679750741 15.144774091883534 14.398888546426095 16.744364597377416 18.66601322481529 19.569153959562748 20.899396777137813 20.456964204377737 20.096594205102146 19.626301430900067 19.208429661825097 16.344031337844687 16.510021408642704 19.144054453533506 19.74457348881241 19.602879371075367 21.21802518096561 20.492130508405214 18.66305355360773 16.18733529630094 15.635697690494137 17.305226096113405 17.244262826988 17.423248368261778 17.63917662300658 18.99534866589936 18.320564141235792 17.453513711549906 17.731140435651927 18.56734921523228 18.549109455261572 17.175390466784524 16.174723959376713 15.790058216051674 16.86755349634128 16.476963418956455 16.839203880628684 14.9995468534117 14.987796686952342 17.372629655551325 19.203654408496014 19.122009434413172 19.29006612116538 18.843984588144426 18.67409397584028 18.32236837896406 19.274288732970135 19.078597818294664 17.892238860976338 16.25560022953143 16.711083069690375 18.4005728002883 18.532461588707466 16.971426763484796 14.66001970311483 14.725341353127284 18.33684809723984 19.660893326029424 18.012926092906547 15.645219818231238 15.27528228948875 15.363732009603119 15.73355771589715 17.400986380237708 17.213478148755698 18.624255192574818 18.20731058555245 15.705811946469396 15.43491603074955 16.226694271503508 18.22082616469854 17.126535891116102 15.803913528193156 16.362517160250583 16.36700922293668 17.307881627286353 17.735754266287067 18.62593877140849 16.802229991871087 16.732983048948345 18.772246240360445 19.3324732357974 19.87965069574078 20.109107606887058 18.814622098302745 17.141592451357752 16.51807048702465 14.704132139639139 16.444871204380483 17.56803331231969 17.64558117194959 17.5264416753856 17.51426776317162 18.020526784525575 16.631254243145086 17.431036121722958 17.047461154788255 17.41872609368265 17.295309612291486 20.063255645299375 22.07122235864916 20.04448274693528 19.736164433752588 18.48499650773292 15.776717488727247 17.05952360749437 19.421433754535858 18.96476285889996 15.407054191415588 14.840458237651331 15.514569484968401 16.154450977747913 16.551495163105727 15.980470820509433 16.358282007865622 19.85729648571016 19.436696625060204 18.758838425171216 17.903898478012792 16.493768711601522 15.541932376921793 17.16186147823016 18.101566563569794 19.379893949836564 17.01436047629318 16.480593192396462 16.88367128661362 16.105888610120637 16.242522409502293 17.707222175191706 16.118783256722864 15.210792102419918 16.536139225636628 19.370032320117225 20.619207589451275 19.984570616037217 19.945526592543068 19.215985604996153 15.530430287722664 15.24410089409128 15.575232615440717 13.74050206485302 15.462877319175094 17.19382609116447 16.654905331804287 18.284277090120497 18.6782298586549 17.149278244219083 15.847454185102173 17.550425294260233 18.8737064769548 18.173497860987112 16.31566156002771 17.507009148153568 19.586858818829622 21.53444069836631 22.30981127119829 19.709335910358202 17.989476751500984 17.39677737109279 18.50874292380373 16.79706214574564 16.079817447417003 16.029109875047073 18.24311620351537 20.074989811245036 20.714907368884397 20.861531641722028 20.576507958932744 19.27792152629465 18.751057550196748 16.555773451107182 15.105377314234493 17.334357710743852 19.583766426164235 17.17315568732489 17.097779279682655 17.615469917278947 17.729296298552125 19.198226011298107 19.274417923471802 16.237544224895228 13.764063959213438 15.176751032187541 16.84768929713971 17.536053246882982 16.76954436079667 17.04984530229543 16.644699907468965 16.24661336465689 17.16800263679082 16.916699335898883 14.097191322429389 13.677851934289281 14.035319289186955 15.557360118284347 16.931544715053175 15.870234563818578 15.912061107645915 16.79879493417657 16.854751224849835 15.104226897197144 15.39447860021497 16.994529096056024 19.579306626133686 19.561650659005508 19.46160488629573 18.445980217714222 18.528756588157044 17.61989729246174 17.608583200541364 16.589191899469558 17.333789868327965 18.650781836612072 18.220245983870864 18.294151732775404 19.526430161830962 16.721405248483574 15.133620280684175 15.640211285149633 17.526075074047505 18.004836882322643 16.46481938079897 16.58264043202891 17.07299279347169 18.66511736337579 17.822054816900227 16.242710036764848 16.515348644815507 17.181750194961758 16.94216064349202 15.829526665580945 15.272454801374609 17.529052426687628 18.5881658212908 17.157746048240647 16.53828036836154 13.738382834547426 12.846852408980155 14.307077860034106 16.943006374752244 18.747136165077897 18.29442502996038 17.890125727601063 17.97814009943228 18.34785321251674 20.81550985872289 20.905309081347436 19.666038892329507 18.382613057282114 18.414896049184023 19.713011428022938 19.705326142002246 17.852619172517414 14.436000939231517 13.17432061502472 16.25797127450313 17.59906705880997 17.44417547936979 17.359317195023415 16.577972498998417 16.674539582637088 17.877091442549688 18.199566229187646 16.657718357715986 17.754619769996367 17.827053726490057 17.759125105056867 17.92041787265667 16.593504458660288 17.349699002644705 16.132519217878837 16.440896076923988 16.248048597580407 15.689397105357365 16.315155310820593 18.322117199680942 18.788271597216017 17.76164362231916 17.620517275520662 19.127393508534183 18.369611672205483 16.945030505535993 17.64869690871113 16.574661889025826 16.469260507571505 17.08535625278937 15.455857874581385 16.092221956340826 17.22825749620884 16.855309797014765 17.322528249796033 17.754552489537204 17.275210000217996 16.107862322799708 16.838336718597166 16.820856067276836 17.813009589455987 18.457949080241107 20.297211900406584 21.022220436932425 19.403627894732214 19.897075541958692 18.18925876988154 16.41277572280369 17.33883261582041 19.220138660385775 18.836818356762883 16.300097631745075 16.594530132883218 16.75652260980872 15.947810640838059 17.1644386929431 15.570476870846367 14.88243020742146 17.20596108058365 16.068628912993674 17.07610872110851 17.62482227893872 16.80653163407055 16.312469963010244 17.704494508897294 18.657232267808983 20.879279091038576 19.43425641882149 16.597669604754397 15.345851464465438 13.15730097514236 13.947854324039751 16.786022019940354