# vtk DataFile Version 2.0
Ocean Simulation Step
ASCII
DATASET STRUCTURED_POINTS
DIMENSIONS 200 200 1
ORIGIN 0 0 0
SPACING 1 1 1
POINT_DATA 40000
SCALARS Temperature float 1
LOOKUP_TABLE default
9.652755807098716 11.499467183606614 12.254658572430396 15.790905519664431 11.238017996681014 12.831142214217822 10.699816059610388 15.50924846591327 23.73947212227171 19.614878290797886 14.716606445445347 12.322774224709034 16.044222103013137 20.44078458945999 18.06415505018714 23.305193884187354 19.10167212528061 14.922888496214895 20.367136877783484 25.008687175120542 17.364841427698774 14.657865912554723 8.906443093185414 10.289255711929297 12.095058102408476 12.498034880257311 17.99341459142062 10.701910462637565 17.949784697722574 25.819105842791988 22.73447469218303 19.383728657261912 20.27878611825629 25.132387731522165 23.886005278529442 17.353416101940166 13.486958944272432 21.645180945458154 12.487619648147621 20.162346828477393 18.133563855177904 22.135946211356927 22.674470361638697 16.04629794596065 19.67481020331451 24.716919058929722 20.337359300175844 12.79954930193618 18.149453949341545 11.746405559888151 16.213944143582395 14.117611978370073 17.714172870695933 21.69104887622633 23.144044548724118 25.148166126436525 14.95741209735054 9.91047294394068 14.670119082647423 9.344090007241196 11.797798529284119 24.659911708504744 24.409535593682467 26.26321475736725 23.073214807256225 16.587439341563748 25.04389128044415 21.068005629586807 16.975950551969504 13.249009332101782 15.756066401709251 21.61525060585379 23.112026633778378 24.28249781032127 20.81238956141648 18.501232332829183 20.710193294160636 16.694201070053406 11.174892822379789 18.436851975405904 16.712295175394463 10.881959475885155 13.070783373991175 21.164549699534714 20.031554494544814 11.865250628205317 9.160975493426971 22.855063244003322 15.11296393927713 12.412472520592734 21.01079095261163 12.899181107718867 10.321329917958867 8.909175766687369 12.607005070774209 10.198377990756445 12.23461188921146 10.006723214004813 14.760847102273171 17.224625217356294 12.44639301383914 23.15243971946985 17.889480447853455 17.230602600403046 11.952861448608937 10.431449014806624 13.269132943525038 15.639638533821419 14.073828214340733 23.77598413904524 22.62862359570034 10.402175556781227 18.015568229109586 18.008707572167108 9.980063451261106 19.81972531840807 10.60780088864414 11.52234834550445 17.763168420827885 12.131281175247915 19.65936984040133 14.37701519447952 12.89049118130212 18.433852655609527 22.306884706788495 12.100378117577574 19.58911210141063 11.09847887240442 17.84830621870245 21.882313701893704 21.32667769414286 20.48878676205959 15.67304741684272 20.342884706404426 26.556426287304735 23.35459492792971 18.427487462469134 22.641953021799917 21.01573673846248 18.420056145478664 11.966266560632864 13.725090639861532 16.351056474039222 24.295325247886943 19.675364060983494 9.769671053679877 18.385531876347134 23.691595237542018 18.493447537526436 11.977780724707635 24.882454773833675 22.55434617839078 23.872616473584692 14.600375988922226 16.353348477475794 15.492061866515908 19.351514691956787 14.16081693571715 16.355087040559628 10.993292671361674 12.718842861225916 16.178873181145327 10.053491169469885 18.980909925748264 24.648967120272356 20.282157520360546 17.912645938163266 14.258402096710768 18.37952095833387 16.076917011011446 23.88206299082354 21.236332187677313 18.43214385278154 17.98808665080637 24.42336085968382 19.206469053996756 22.429767237879012 13.985346963126338 11.13921875512332 22.58862777752895 20.317221077166806 25.657748080237255 12.381421381022207 9.87758144378452 12.43269673636616 22.777808392608712 21.651460526909585 24.143654607059872 20.943380235786353 17.307758703715134 12.01408272956714 12.344810325087492 19.449777648831287 13.864103316579104 17.81073640601363 11.262765656175116 22.868633735046544 18.55627309688935 19.626117385542702 19.674827384902628 10.276806686557654 9.016413781103982 17.52114489076634 22.219787021015563 19.38538549922798 22.176546770726237 16.846272830403816 15.346698795136087 20.530288957295706 11.723205776623304 15.317920404749033 13.727270044225572 17.87964829707161 19.058504348800618 11.777951508833246 25.10945846840304 23.670176213125767 19.253175133548456 16.749167775728257 26.40290524685501 25.701847344985307 14.895286117108778 14.171532852673495 14.026873557184338 11.144473796609248 18.17588372814285 16.42250479904315 12.600264885280327 13.80896253407177 14.916767016584698 17.52802699282379 14.47674620056175 23.82170384676108 25.292580803527507 21.443556983568037 23.73997805595657 11.964006698084887 24.45851844596648 18.314525533230654 23.958610008383136 17.122879067183003 21.583375142174685 26.34297260723133 24.206553123144865 23.227295714417014 20.42521824663028 10.983446932817102 16.148937030856203 19.63450125696273 16.351438177905223 21.033390703834982 25.057528492375084 22.676241522444577 26.05843891356666 14.285498921915648 19.284973217151048 18.502859394562112 18.049922912480397 17.19891379401384 15.461984931639508 18.65716125520995 25.748016621707322 22.40195917510367 17.302082620492072 12.52685907887907 10.116564879889273 15.025693124664052 11.265290054026813 12.057949212854087 10.949466181160387 17.431612051451694 25.397325856274463 19.826555848451417 23.982918864427635 24.46276232814985 22.603950624979436 24.45896130884211 20.76971617034926 23.940571061551807 23.111576267205475 22.28661703574899 17.571524581779414 16.648346512881947 15.700298180490748 16.068953045898475 11.06266286869146 10.635867136112934 15.777323620939168 11.923959380783181 16.532530359089193 16.462447506548692 20.268095127056064 12.942358644375082 11.200638133329312 20.885028240301263 20.18703922666045 21.350254197273216 10.693187428983371 17.4382548718065 10.365787274265148 14.728455163411335 23.56898179329256 17.230286787514913 14.116661728689898 10.53588446469225 12.291252875305052 13.527469581365784 25.56757094876437 22.66763746843175 19.378653754900593 24.30757882400662 17.400213557916178 20.72632780447301 14.032194089206731 10.165780085071555 21.914687292130946 11.403116552355458 15.047688659311588 12.263256583330046 17.56693235132917 17.00941810275647 10.00619472908207 8.279798461333748 9.538231446019566 24.38477891151845 21.12113630333701 23.785610082538856 12.323263321175938 10.358747002885314 20.270217733881722 11.965520208919186 12.676033035320568 14.485791873203922 12.365202269229703 21.76224600371399 18.58670087794358 24.28614157908374 14.73881972409519 11.53576201266469 8.760800312911922 12.638706848948223 18.43021850740726 25.403292428863118 22.811580799435788 14.228239217372362 12.630040205915918 25.58786526354361 21.61944646859339 15.236298881757946 14.471424172003578 24.16107073469184 19.594978899367103 24.615503391862024 13.670686758213124 11.085801605461684 16.93571785028162 21.464254857541285 22.439449644422968 14.429763590720112 22.07807275143904 23.431636779095257 15.091771373042834 12.146470146548982 13.4498340030297 17.00721349105723 21.069547877944512 12.641505118205792 11.644848314610352 12.201892928443623 12.9913759728402 23.89905786229044 18.503339054548622 17.749284677048355 22.554985277830465 23.658094314569965 13.192156595854463 18.900572566704003 23.672589368242466 23.762125734219065 21.242905797450224 22.33651367402756 24.258128039320496 23.749500445744335 20.033119351549498 17.12336802958129 12.711411033970457 8.738204475954518 12.910736173607724 13.122561474665636 13.793488599372536 13.464760421630755 11.911635603717233 19.386104239506135 16.615812885431613 20.542332120996882 18.6141976701976 17.21852835948188 11.609595487997197 19.29615958598945 19.31399247294298 23.14226304096693 15.337060700687159 17.28171230148288 19.967829697404024 15.382622637685378 23.343634033253363 12.437350043193222 21.175644964788503 23.531540203267177 20.575626927185176 12.617876651556426 16.504170432699315 17.393082589161455 12.47701076015917 11.026393291207055 17.77320534004729 12.678125408391876 18.700665569612752 18.946957906700952 21.689571340804445 22.33812416705052 16.35551331235056 15.722380080206221 10.540355193263164 15.746629265372801 17.46056551662742 12.532063703370438 18.616151278775952 10.91307843060514 10.848781939473689 13.024571393512394 15.465996004141244 15.363768378503652 22.543671144990093 25.496146069799927 26.237327428715314 16.34049135607657 19.29819479822387 25.64417767052087 24.057427001554224 22.864962357942122 14.068172288801643 19.21969686721324 20.760778662185917 17.29972777791782 18.993246894113856 15.029226286226775 10.43162087996442 19.236742324266828 18.236735496281355 11.522335186561866 16.33889167015628 17.764808030909542 24.719045128072555 17.850508423864607 17.845365761234284 18.80872417628635 15.013530071978336 14.007361565084684 14.07391459143843 13.966296326544231 12.663275512745091 18.318701893668702 12.505654783741662 15.784060089024308 20.746771954184243 24.68645012795187 13.945305388607613 20.08690841956733 17.08339551726088 10.794458702476986 23.467868501069365 17.07291524223607 14.667435892371781 17.001419110498297 20.590105628762267 24.42542766845839 23.736325591283286 24.284737440294876 19.56833595289351 23.21739554705529 17.068398202207156 23.08646598089167 15.726504615900186 12.44653194698547 10.547045343190378 17.05293789633438 17.446676927594417 18.81591677239811 24.136723412569935 15.36892209787426 21.616151816154705 18.689158309379906 12.932094110088844 23.579841840300574 14.971660806605264 21.3825222993506 11.18096981866171 17.459976420822866 9.414671853400689 12.676225477094986 14.76281002643004 13.979650317799983 21.265072330052845 17.316576953091403 22.419656062320282 19.6887559773426 25.796378674911967 21.256565978823925 15.029808657350815 22.42933055026458 23.894187913230937 23.99628925632381 20.211940827956116 10.024933019329163 10.953108012442772 24.134098085104284 20.997266479623452 19.576246472079763 21.977563887747156 15.109962991046144 21.66340236387417 9.850710366130366 9.955643241507795 15.638810794173493 23.714404228496768 16.98045615163786 18.227608028026097 16.691499739719312 16.96366210528058 16.138874559275866 13.331575953912388 17.90911178677142 9.707353988175996 14.838734064944187 12.327519558661265 19.037840243000566 10.93063406085243 9.526991083799063 9.22690901763812 24.301878560324237 21.998430492536098 23.202487623777618 16.538919490085103 14.864975087307844 22.09148173692699 25.173941193560346 17.570385382600552 19.330048239357815 21.15500316186562 13.051270960421974 15.606364430201427 16.867082551680518 11.230534035709878 19.2295339071876 12.638289172045628 12.601700837414672 22.8096309499509 23.00848724498565 18.06166147096521 20.75233251683298 22.343183078990073 23.496134474836204 18.348153111043718 21.28174139402093 16.85278792847155 23.19827106626047 10.593647634839856 17.084758495234254 21.179232078987233 23.814535046737273 16.947945574217737 11.132155617055366 16.243706442501832 9.143868095801563 7.306753088989848 10.473221367707366 12.643523817568687 15.005005634696694 13.632262384664644 10.176423250350146 11.223127000988008 17.087596414180567 18.585281976819804 18.04455251532221 22.989826548298282 10.309055726580997 18.218046769652354 18.38576936786996 23.65981484462546 20.87833620403892 15.776583474372021 19.518719186216444 13.858908613053673 14.355965950635808 15.16598982822755 13.630991666341126 10.615940717557299 18.99491235971256 13.727286616801441 19.995545503868534 13.689116720677717 18.46398903541046 20.895607891389542 20.882399996749253 14.489175528813306 7.814780440757223 11.751173401378859 22.25403528263887 15.754689061766717 23.445418963810635 23.993584832795793 24.04557586249775 15.582947446827696 11.666611808534498 11.051178748818522 14.641093394906312 12.37479057252485 18.72773828149357 20.734369724867378 22.699926513366496 22.118836841162842 11.916149055300945 10.173098290508788 14.062980046830518 24.25396050808126 21.266660953742008 15.075404935152541 15.182285402493559 10.9350600334595 21.08191376345395 14.764430701333339 19.39840046275011 25.402038221141883 22.141594817266917 24.709371591443613 20.030871684968222 22.939143184395633 19.875088511895182 13.05362692512389 16.33725175490062 19.691662857495437 12.660767105325716 18.265251430511995 20.1653787379054 22.361185543303783 19.860448599731026 13.674540365880048 11.042106443985796 24.64749364226491 20.57081738775912 24.418051679504423 17.87838382122047 13.92295976284479 11.86870361024743 18.77672830349311 14.31096048948047 20.06807232524755 14.308712398528437 9.723627462494935 8.928304233203363 9.538035483798993 17.155689904875818 10.163455839623591 11.293864292177101 14.311386927354281 22.10057114877089 19.12200857459274 13.342786369670794 19.934305147440092 13.11528564036108 23.084702881156492 18.489725846692963 13.424719698821036 21.136210263270836 18.686696071013685 16.071797464161698 16.766064054423445 12.229781335270156 14.690803825920955 12.817979065704526 17.287837304039595 19.180839278634995 16.50878633791315 14.97715147693067 19.754521821625115 25.26668441174628 16.39648403712792 14.266083234655682 18.471543963496817 12.017248498177176 17.08078989159604 21.765982729811977 23.572595043433576 14.157740325345554 9.993762670564788 10.926071324009264 13.791440233361875 21.582003471822524 15.423991259613983 19.37064176861798 15.373799652976942 11.510179299861552 11.934571939626911 20.63170202816309 17.47547849847314 18.360485607646424 25.16733996438012 20.813096002125633 10.462032989841276 22.582501844636685 11.55372927442176 12.118355563362158 19.364315401821408 14.904838610545108 16.5484085681674 21.962352782803556 10.95401042642892 18.73120622832602 17.922393960387243 19.229195850615028 13.37087858448542 10.073418403820089 19.401681878145205 22.883123866388654 24.479426094073965 23.58369061655598 20.39735963038465 20.98129554407556 19.458184716096792 22.481668421562485 24.245280835703735 22.921841427493902 16.172617102624724 20.79813859144694 24.17440433132169 14.927303320385606 22.88336209594113 12.480416491561455 15.68596248425702 24.167059775285647 18.39844041584039 17.57913546672056 14.017644076559264 16.891607715766025 24.516818460809755 15.582159009663828 18.78503562268824 15.592554425215633 23.58288475139008 11.963231929176564 12.536978458809731 21.796505985298694 14.94393534818023 19.275181408057843 16.09936551219124 19.0764092709769 24.1186870097613 23.768340205516356 12.261355603164395 12.872154913749045 11.82460227533878 23.132710029587134 24.600029522550837 18.268509486485677 24.603393770576425 20.595188794445722 15.218172458474603 16.906570948607346 23.231232649928025 24.589720196420355 12.159459689517492 14.756859205704627 15.378664955863178 10.146954576675254 9.560890711963083 16.327108113844513 23.656080521582677 15.183204385857714 21.82135918676482 10.511747641473608 13.794018504212207 18.522456913155054 16.8027230852392 23.340446501108538 22.50627625580912 10.703535459866584 11.224220340386449 10.545799101934698 15.236683596681656 23.814879960541443 25.705933761156224 24.922335022511607 12.826452112174623 11.769166984655214 16.934863323666214 19.939431428487808 15.737594903354482 17.864075340920234 17.19387528239499 12.884341796686618 12.526698980510812 13.682841618087 10.274625475609609 23.00112398031224 23.16903726846901 10.752313685818407 9.571003932569932 14.164429873112097 13.908264214182987 15.75495392510595 14.45824586135756 14.540502626608468 18.90679327869035 20.914867212078157 17.68962986854486 16.045893524382073 23.124600889919186 21.32441751082283 13.170449695637593 12.756667723225565 12.576542635453286 16.37761843839668 17.251338331722042 16.49870565846493 25.234296543224144 12.484103511786023 11.648130352304767 9.98799624450229 15.660077402082228 21.673665300853337 11.18273049542867 9.66768678904189 22.51860526192954 25.521995445002517 24.328216198948585 19.308190394434906 25.431627904100743 26.093496557459094 24.255045031730823 23.867210852614495 19.32760950572593 15.206524369198489 13.864340806504392 12.156522929738452 12.051280097319559 21.415904948522797 15.886506623870542 17.53178030693068 25.658458887160805 19.077231931213774 13.186625310656229 10.202060103635418 20.567546424715523 10.872901331293884 14.477734641599405 16.110439100782983 16.435234480106615 22.356707823490158 14.043834890843275 17.417696734465306 19.68838406604451 20.744920581529772 14.33678556176067 18.16428780308343 14.759952890684977 12.15561364138631 20.7599112971949 15.015027046909541 11.428090235585998 8.367528567273467 13.612912019829686 16.41909686631332 10.78004417550749 14.975989309537724 12.440817512404374 21.715320769170106 24.21989852485201 23.776924806659807 22.231706741870934 12.82717973851385 15.522893741464626 21.45152296798022 19.238984804511038 15.293829494284655 14.651358513213562 24.168620315321476 22.447319403955426 13.15491929578323 10.022666645856562 18.345891126124695 19.894714549243815 15.050637497072376 14.91743074570035 21.959774188629048 19.631921205536756 20.908538840985212 15.544129917220921 21.649696386522947 21.13176953835624 11.847217124920942 9.73420878823675 20.23059882304839 18.681512672172605 21.12672033760367 20.768005967504905 11.067413256967843 13.630716552076658 11.8211106777109 10.31113343920389 11.149472680596999 9.991798957310392 22.933678091262323 16.47372895061059 13.94707226299368 20.564896526992275 16.327836284860247 12.879141023609467 23.320873179748315 15.298871566580916 22.831813082407923 16.49491385616697 10.560616297602133 11.082093641614252 23.99367761702843 21.497643605388944 22.455931500314584 15.954219575798565 19.133514442900964 15.631147786774784 11.937418766329642 14.520269919861848 19.201840112004763 13.600025672920442 20.87403315208013 21.604780700729247 15.03450461572885 19.29863243482567 12.740724431349783 17.86501778924292 13.841889782541537 12.9212549143935 16.168264439496568 19.391008404418322 23.31041867444027 20.73931760428248 17.25231247015618 16.734587613004646 16.676702356342233 23.076065180230252 20.632894464220467 19.66242904716543 23.344589016979345 11.285432416720514 20.65186091018818 16.92911862097012 13.27694603882985 10.186716111331958 19.33681444076932 13.741505698633002 9.011726853783868 15.746103805726085 15.61041606309552 25.14300698575734 21.959132559079915 23.823694965461566 14.25305783685972 20.986712244410416 23.465047738485886 15.985348225108897 12.278036058495477 12.201773019921283 11.088650453377127 14.260490548827345 14.363977153083729 14.929772193404393 21.162944298666424 18.79002963340712 16.328336826550256 23.97989998852341 22.5769480620141 15.028574868498165 14.039842645544416 19.540754404216344 24.01244850119524 24.54763116024895 15.801589399869961 10.073945112519048 13.115092521468515 12.923369806196208 23.434236757994373 16.694502989254957 15.497990612580471 10.728788743085957 21.67431680240386 14.414400143148507 20.747782408059866 17.186142196191458 20.770410737787053 23.665531282458787 10.791732682517688 20.116007422648185 10.856263647724028 9.9662313261425 14.866952102617173 24.91873105846447 14.039183436356474 13.687838864943194 18.461807852592926 16.97187127424152 19.044473954291508 22.987150200986306 20.942321482432373 18.34005146066514 20.47028328391982 22.695987434112936 24.305544341709997 24.658355933972498 23.19949539371066 22.107387970691224 24.45985473973713 23.36809014138411 24.343934716496154 16.87476466707553 19.80618539198317 23.628480741436054 17.661616490793225 19.08493628990308 18.062156827804895 20.22416952803796 11.819636871413243 13.97768128298764 12.515603913861902 24.958025535217196 26.388032529087134 20.8443008882524 21.308696603220174 17.20383228286643 20.633095533052753 23.262456947001745 14.608035230891518 20.60466569081302 14.24227913185131 21.932539923568747 21.043523245729297 23.809779914007127 23.22512186289036 21.166796029576474 20.256092851589887 16.823602762982873 11.993312259759172 11.904854107479725 9.845467233969392 15.579795565805844 21.17468066796771 19.166723376303473 12.741417548455443 18.04016409971503 21.115756158737078 18.87177837887385 17.811299669756632 24.49561250711655 15.54205671434377 9.960911791626513 11.920310413249103 20.745570494574633 16.735279971576574 19.18166472553031 19.658742993118324 20.775624245251045 12.47966285283746 19.44430018160684 21.9545664366919 13.864259260784648 25.20231440393081 23.262771587226737 24.461618553784586 22.386310614861678 25.222167527825274 15.372587308011404 13.03351730288187 16.158257413744863 18.269678144553023 16.358514554605943 19.342756036370293 24.045699208273586 21.046850764202837 22.038488260664025 14.664950297786202 9.493388718455876 12.489087989977222 13.444224208740517 15.325378759218646 18.914061870712107 16.527034377539092 12.020284378943993 15.421043444555178 15.054376369925617 17.358201838166874 15.516062945892648 10.395658181162393 13.188766022361536 13.679427792978236 17.824549739452223 16.4015210145274 13.256636855564404 21.97338824199214 21.95752640623069 18.297407838901883 11.146746694080555 15.97596337533577 15.960153205466117 20.617836087244257 24.53308924282273 23.304045385289122 20.911854671462912 12.45721621000699 18.212310257073 20.887248028333403 12.122919214955429 21.697029461194326 24.58394029262317 23.729981868645158 17.697229911817203 13.565618180447371 22.80140807319775 17.394509214993683 11.908351555206556 15.983437188893175 14.31059984585303 10.860315728038744 12.060181046569292 15.582025776402457 16.635600444549663 16.84815138260872 10.30873121580607 10.281293752719057 20.41136337592561 17.96317188503298 17.330094547966166 14.633475724049882 13.747267429893393 18.970106973004615 12.287833591563533 13.861737497324814 22.65154205726968 14.152988948773782 12.032943067207023 11.88013449239095 22.411254133394717 21.250323760163916 17.129603667154136 12.876664997889355 12.972774836312649 18.28943723098619 11.713299158053601 22.329565823974054 13.88112866255642 24.135152990678684 22.672587273181197 15.427747959362726 16.66458029564737 9.452267958154112 14.828464227231326 15.863491394519961 21.89088061309937 17.302116399027856 24.449429625260347 26.49951135464422 12.060350532964657 17.339563914156752 17.927298220573135 11.22019891408993 18.058826300674067 23.48880653765609 24.67978897921834 15.505203032437048 14.11457429899811 15.681956195192608 14.095531010380292 11.097941024886076 18.037079697272098 10.330631080771651 21.35743624960718 21.071149381107105 14.246527292344695 19.83673392320985 11.058639251895865 10.893668781368048 20.520619402625055 13.375430184521285 17.019838112450156 11.273782322038425 17.612677904882485 22.43741421460969 20.36000047650775 18.584318852484376 17.20567753389516 21.719165841263383 14.430164485314036 20.971104212352884 22.55174828042045 22.05363976146471 20.920236374543467 23.769689346868347 25.08793686316225 14.592170800221142 19.068584019144247 16.412225228331465 10.972685323604889 14.027550087636916 17.612105508759697 11.610851083027022 20.354176187989225 20.01433405598327 15.49333118328535 17.64878870632266 18.08404907809868 23.305350884144108 21.869813499940978 17.60834882533036 23.40860030947917 14.762581464114534 22.00836152699754 21.959083603151655 13.981652565838479 13.678664877122213 12.334456746905103 20.544427331705574 21.471334070256944 18.943278785924647 10.414774713588274 21.857476205931004 18.311854370345785 19.785145053224902 14.15851331494976 25.132882733165093 24.775941324389432 25.582361694803353 17.700716756275053 17.919467473396 17.898759313650483 22.74145193940432 20.325382577558045 12.213214848480211 18.168953366824017 11.520341594876774 25.28053627820891 25.846589898829116 11.428745199064046 11.803537539962303 13.41921987305468 22.506711480068823 19.0441794510923 12.956925630943228 17.543806418070815 24.369636860735636 21.285004996242307 13.064479631514434 16.879139064891746 14.692301271724236 19.951352892580147 12.952977952469006 18.317241527921226 19.52960631651545 18.86594973673474 22.92817074509801 23.426152483008938 17.76204476107569 12.2244859705688 10.436518152283156 18.58181850829942 16.751708475655867 22.027756977260236 23.434525518144774 21.696295797669258 18.426868710445735 19.03750899835128 22.351207512477814 12.548156478978873 13.939094882105094 24.244962351616728 23.671051833488878 19.010370751304624 25.514185344964424 24.211080258946673 22.09354899196028 11.129248668330595 10.331851109017888 23.253148466902424 19.4455532571201 19.591662437509463 17.969387446438077 21.419621938732764 18.619835446272887 20.33506145397789 18.685545878368924 22.380830104333782 22.259857743357173 18.021714980130607 21.78284357858487 12.3709323487244 19.08187799371792 13.67604059475451 20.64091433664368 14.206114653258563 10.998853010160603 19.881798228552086 25.18409548284403 21.04237069488638 23.399551673730123 20.887046381171327 19.524723980830636 15.16941260126987 17.519617402767793 17.237871645345106 19.44295525123119 11.81485699531382 11.931440998251558 21.50059650661599 16.661027552394362 14.164891958449557 9.996017088879821 11.34861426870491 23.384073371510553 22.630306262481987 20.54820100812225 11.931624755678788 13.97513326496822 15.92583903469215 12.499527655696022 22.158520339316947 15.847358919599268 23.470756512333438 22.45454201756514 11.150777530704863 13.992090070267787 12.408714298453878 22.77896584564385 19.195747570261624 11.281034647435462 19.645745175771864 13.565730860641475 22.57634543207083 14.543628844033519 21.962266773407386 14.320518597689196 16.00470256621883 23.556720154919564 16.55580047389285 23.509596734764003 24.222833152408192 24.15698810764668 17.426068607144327 17.565465930687722 10.244416539237598 17.622890270701525 19.687728985424563 16.62829778394272 16.84962044059649 16.98263752544073 23.146131410018857 16.12077929895325 20.669505494176434 15.636763627432561 15.559342167267323 12.144065328966493 18.013469066701454 26.42055610017006 21.540132281680602 21.073561278087727 22.854841587832784 12.426728966879942 16.203220587916203 20.253973214153376 20.413757505934473 10.157121350565651 11.885365666482427 12.964968278388904 18.43138711471891 17.602973869866137 15.742480416128368 15.405793218469531 26.21018970783462 21.448566065471827 21.726276406561126 17.57887747695379 19.653881643517355 13.322100068947984 16.804129506459322 18.241556160972873 24.65366115193166 12.596405448679233 16.89408830968002 17.191211810295844 17.033444867072504 14.617835327238977 22.727014983187342 12.949204413161457 13.34803726341404 14.952396634139511 19.37079436721069 23.670386668053943 18.274357730075835 18.405574747004355 22.003042377575944 10.81376897770611 12.07706794401567 17.900371537783638 9.290738951916559 16.622826556704986 18.731688868432887 14.964519514109421 23.16524515947368 20.17104299855621 16.98723134527027 10.963536091034442 19.368759331505302 17.65746632884884 16.867507605164235 12.09949427351251 16.29011530918256 24.122562040189635 25.657976188853052 26.886007514171855 17.589656798479602 16.578539571761496 13.157874315007254 22.21245810019755 14.86372686386947 16.3085773533165 12.5557203207953 16.159611067556686 23.06606944655596 22.705694419379828 23.849295353015297 22.13321537743308 18.276024410180938 20.958877530316087 15.964709781834468 10.50067733215301 16.55067626484153 24.106477951846685 11.779610286497775 18.130747157113053 15.018536483836549 13.446522424203431 18.117214136142554 22.514196690075213 16.59425524640832 9.614936432714321 15.49774294606783 19.04532481954461 22.426570760270266 13.4012171620442 18.090605525487074 16.26268071028789 13.524926773123136 20.808647214282487 19.24687198296885 10.220818873650126 10.029288743775806 11.19093882047194 16.05903967634302 19.58323424464952 10.941299663034009 12.24080439348528 16.296205805741593 21.132387883434664 12.635676653495787 16.30510868768612 12.800438629430829 22.427929195227044 16.513755614476228 19.317625897432094 15.180329238464376 21.856954021634174 15.588428338954436 16.88105710330103 12.310748922051456 19.75180104005782 19.268500889077085 13.213121946723689 15.694837588515613 24.12854176204237 11.598197755420562 11.99915944700246 16.826893870476496 19.7581898873395 21.900748777525486 14.960692293495944 18.76030876014165 12.491126388725482 23.746607950064906 18.30508169055399 12.96458167355599 16.075042654625047 15.997652957170779 14.248120106490509 12.991166573672391 10.365930380925956 19.299136911590022 21.393165305276224 13.248604296915905 16.62991082511755 11.2518414263341 12.5655920980914 10.35944128773565 14.85277563220495 20.43106468128339 19.577389163304904 17.59074004406999 15.632659173591923 12.93115477643635 24.4832866828408 22.00956828373683 23.86446560944856 17.446599173065305 17.512615063809363 24.472323020040342 22.44232126014041 17.672424423969613 11.1288778096432 8.935132541763789 21.021539150264086 17.147368195342604 12.22127228555257 18.837022801903515 17.111545150968954 15.078163205487895 21.386521958891105 22.665081085574883 12.251073148347585 15.346792214214469 17.60612215284003 20.937113212571195 23.938440898300744 13.525762054356948 23.08100825226366 12.341904006117044 20.26011110721632 17.92867542625192 15.70431996191053 15.329488211548998 22.291459006339842 17.678229738433487 17.18832944852488 15.366602506482074 22.345606833825578 20.86287742171581 11.968693968639421 18.455477781004145 13.449833742482916 17.39608588138565 19.01933238380402 11.229663295759915 12.724221190626606 21.147592897226573 11.875913585198166 13.579435349429637 17.745202326609903 19.29974097380258 13.972945903638186 19.19600174603636 15.169358931000884 23.197203767682346 17.719392749170293 22.28473064011568 23.88188027821135 14.50397189704109 23.856423474668006 19.727476285678456 13.117227679188256 16.334192681345822 23.977853788505048 24.301498701979693 13.85802275575031 20.223214423049686 22.90150256304361 11.336092034025246 20.99244161097818 14.108817911649652 12.141262036473686 22.389549036540476 10.232753478409961 14.666650160759358 19.320372819252825 16.588366591336342 16.732545743077846 22.970930440926374 13.945055746600955 25.245931490033968 22.1212433452156 13.594237481274348 14.425854985367087 8.770278102256354 10.96936816135031 18.184570721520895 12.