# vtk DataFile Version 2.0
Ocean Simulation Step
ASCII
DATASET STRUCTURED_POINTS
DIMENSIONS 200 200 1
ORIGIN 0 0 0
SPACING 1 1 1
POINT_DATA 40000
SCALARS Temperature float 1
LOOKUP_TABLE default
11.655209214297884 11.718792365897537 13.096944034088462 15.71350422087011 13.30717399906086 14.013711840610053 12.336968377599785 15.588025101023698 21.34534378312955 18.229540619923924 14.98508398315065 13.488924436750008 16.406148655587874 19.429256506236552 18.288000683623018 21.453468366144836 18.966471268525034 17.06205012060077 20.277224074019077 22.88974722742971 18.695323138217713 14.902731031184363 10.995031411671663 11.44939965724678 12.743569666716063 13.468045639735678 15.86380867752071 12.5507834979053 17.821244721304957 23.22273790310025 21.55917376792977 18.734072809997134 20.04698983699599 22.89969337389917 22.201955728508082 17.717932740623983 14.944057192148055 20.31316654416886 15.605114987693035 19.478785821249797 19.004471647241765 21.655614728469168 21.386888171747483 17.48364513576996 20.23402316951429 23.11112282138026 19.14563673032339 14.704354791929939 16.892619515434195 13.828766110692555 16.59850364440399 16.372955428385325 17.91241606405486 20.74088151463103 21.75957081447466 23.211393480130454 16.82747503433335 12.521827471486413 14.382408082080314 11.46992844472908 13.542231483565393 22.516112855445503 23.45287821726994 23.94407922184438 21.001383963516965 17.63620647963646 22.43414388094709 19.38576783481037 16.05009998444263 13.701968387686168 15.578946761184985 20.495688291834053 22.161070458600985 22.493940164355273 20.22880996976072 18.47367902633615 19.519987358798414 17.601690772432708 14.33602307266888 18.257294912812966 16.491330271599765 12.886613021122185 14.200212320283478 19.087053545155843 18.751283090625044 12.761189836187043 11.075615864529873 18.985036586747352 15.99221035941823 14.926794182738696 18.7484006166189 14.541908942406716 11.71001670102845 10.510625120937942 13.251900403691915 11.832756744948782 12.532561390324684 11.134387541162019 15.168080609647557 16.315697025263784 14.882775171257315 20.59668580879803 17.89635948206136 16.35227939481364 12.47270749982984 11.714434672498005 14.540155989937896 16.96135498521411 16.564014995438875 21.187640677359337 21.037419861744446 13.361145759052206 17.684429120397102 17.211238924645055 12.556947844625409 18.2558852344212 12.80314250096122 13.125512902720192 16.148682822917596 14.46973676629888 17.243501857293772 13.941661997667097 13.629833136701832 17.66132873055555 20.56312454943984 14.903567462766304 17.759771844862204 13.833886868336181 17.29451754237204 20.443347126119694 20.15391617344702 18.471821587273325 16.349221361791187 19.215016686417716 24.21666987296348 22.174229784409416 19.4797405061762 20.579470329481914 18.947460668599984 16.5940862780974 13.413163474556773 14.732156997424111 18.315381553094422 21.702118776338118 18.399469944325357 12.70319649914294 18.748386384381924 21.43546138399037 18.64878377206741 15.36517530684046 22.372361798877776 22.079499305128657 22.74071941228544 16.09677526318796 15.617831112683593 16.414656150153842 18.515104743489868 16.23780243959237 15.848742195215703 13.327796981287634 14.15502796434384 15.781428815938247 13.013680992899653 18.681078617212233 22.181295020530847 19.615864785986375 16.83285426889676 14.496752684029332 17.347449447403758 16.8077133753369 22.009353874550367 20.73462685435364 18.976077099481216 19.35970624569189 22.708984172549588 19.35280996672786 20.191035262141426 16.06663469230949 14.098138512426745 20.88723210291548 20.599051909512003 23.35307481333422 15.173206808932994 12.823872925507121 14.012431596677215 19.821406903308507 19.897201864184705 21.887630148869242 19.253081046699265 16.913035170007884 13.311123333127064 12.98067428521865 17.75979792999168 15.397250061880822 17.403486372660236 14.236206104208206 19.845715121010944 18.74223455749626 19.43614536295411 18.267136384346905 12.402700704112146 11.128219650681746 16.580625944869364 20.320768437781393 18.70629665240095 20.214669805729542 16.29070767428636 16.507625882951093 19.717761681243047 14.610102479350608 14.795651289886393 14.509790649999465 17.294881442680733 17.731804779754707 14.464169704939131 22.371317671968754 21.611266387067296 18.987355566110942 18.57032899060233 24.45394117278623 23.346122841378108 16.03021174726499 13.913189463794446 13.175043760244339 12.657707185542023 16.650299926049883 15.917680362270698 13.55125918555807 14.12821399550643 15.715338628026931 17.163667608325127 16.262131912070124 21.822632265313107 24.212668841660218 22.48349142605579 21.970447282165853 15.143081844260237 21.825670499179225 19.547013974256032 22.265602176426846 18.87659912172065 20.987425563622153 24.21242123319154 22.928977222735995 22.021185535815107 20.01878107267745 13.886390226861149 15.354709775557504 18.48409945184666 16.878860474455166 19.48643208233465 22.315858160771448 21.99452659685476 23.725462229955053 17.220218309880856 19.199716620092588 18.16819603610846 16.943405970663903 16.403425103776637 15.192178480612734 17.7398878069178 22.962059454148545 21.74289887566875 17.805356441473123 14.322380578453311 12.902160602131397 16.173898519420867 13.28045853861414 13.281028505445395 12.710427969383439 16.828537233994204 23.13827731978723 20.723956009322535 22.552651108805062 22.93756368899802 22.183405072158237 23.292617037259635 21.21523483565934 22.200991224628293 22.070894542190846 21.130899773099866 17.34470564440767 16.89529933612837 16.32862778680172 15.583847159725883 11.807699934154108 11.904549095842953 15.696151208609834 13.941067444480709 16.540104680634272 17.08451488205505 18.504214649933793 13.906602750471656 12.574921956878654 18.978992405627558 18.666107342324345 18.941369948365846 12.50250558078017 15.832383618655676 12.226564135440904 14.896459187534672 20.804669354803444 17.255541655298565 15.055100653983665 12.177550283575203 13.268757848231806 15.3195854435612 22.919514481375014 21.56527549753781 20.041340019637918 22.60398029163828 18.339845588991267 19.688116638886214 15.347006989107582 11.962162602851889 18.421650154058145 13.936009834813081 14.902946635539674 14.344638605660432 16.94719606494174 16.440829302658535 12.098819821480125 9.674923655100311 11.978979662952751 21.378207689740393 20.789494277613876 21.145252251690764 14.00665163603074 13.098734591798918 18.355895704702437 14.307262260826812 13.85658114080026 14.717892721917162 14.196463582281602 20.222315203897274 19.22858849298201 21.517348115929366 15.777020759989258 12.509661032693094 10.754945216376788 14.057108596966964 18.40409944731495 23.10848942601981 21.485548712407578 15.707527586113088 14.957024297586887 22.918691374558975 21.01113648454885 16.67619403066795 16.11039840646956 21.599809082336286 20.194876744062295 22.019289472105047 14.616817503915556 13.287829897329518 16.361576575418084 19.848002361468744 20.728068463134278 16.912430049698713 19.93213600116089 20.903535414624418 16.383855289787736 13.847020249028253 15.036315441995677 18.1144594138097 19.470926238656535 14.83905762320239 12.372324763869203 13.50521091831874 15.280119629032018 22.103790527709297 18.99532590718845 17.810578348796316 20.852799452827313 20.939164291560868 14.872367300341196 18.15894781060088 20.976917252945185 21.178387871024007 20.69451619160096 20.897980440857353 22.49816990144294 21.45674334596622 18.859164689443702 16.755712579936645 14.744188004107889 11.43320357386605 14.27085113979629 14.595491617037966 15.072665516825742 14.180843687912924 13.461258089087972 18.25763713053875 16.728120308459744 18.881151688638955 17.583655067778444 16.916613102845588 13.770589667986346 18.409976632551498 17.8938542098095 19.724089677308935 15.52857338768142 17.385227987937743 19.460639004717816 17.4655397704856 20.441477417486816 14.3346340661169 19.02290026299618 22.043050786532433 18.89759660867598 15.082657177851722 16.775537553097102 17.444170701751997 13.933932274009432 12.340811094273388 16.72546050874737 15.020020504460682 17.73805887847654 19.00156891986435 21.690902281740943 21.851697152155836 17.239258147471986 14.875981614791577 11.93747097316382 14.931925863642858 17.414872314812914 14.804678090525524 16.40159328383196 12.377972135786191 11.884793749962919 14.2819881481013 15.366977191405837 17.311046919622708 22.592967268025692 24.49615542292609 24.51461762952864 17.85250491052035 20.368030042046158 23.480114196282187 22.747596786535944 20.992656667808465 16.751474937958946 19.041536318644418 20.284409554542307 18.640580789418113 18.853482404297083 15.30716983714267 12.745864736228226 17.58521391123828 18.079355428490082 14.752533532469409 17.699615856060266 18.779571324166817 22.214700581859525 17.702906297227784 18.0339734819036 17.92282595585773 15.980109945262718 14.556368272387276 13.834777261848464 13.941214282740791 14.418217866912524 17.477771091950064 13.807010612450592 15.279878217816 18.803670215180905 21.706997936401162 15.805055802147612 17.756925285870487 16.35377279060716 13.695109492952218 21.504192400597585 17.964741945073442 16.187109491263467 18.271301299516708 20.578176642892974 23.009196175574154 22.688503162913488 22.430618202669383 20.08771944857569 21.07163346317043 18.14790030403332 20.624852292696335 16.218138305579597 13.413966463277415 12.504323388851047 16.604022731928776 17.259040593460306 17.993935458370938 21.104497948881924 16.65189763519569 19.95344952640501 18.113649927937516 15.345583780038767 20.42803588967324 16.315178207716702 18.63932014483577 13.113951162906657 16.370821859531183 11.55495551667452 13.533705398467955 15.383250858296437 14.916300475130093 18.544155160439317 17.614539754962173 20.07881743207018 19.715796672769578 24.22717681826145 21.026488209853138 16.654173284690536 21.65053204202171 21.733164298472097 21.82408511291391 18.733895898129365 11.98477731257132 13.794708775266153 20.848243098108714 19.3924144249554 19.003368902497172 20.105939113488365 16.79082217720319 17.89313308572368 11.03488611522352 11.732921968079195 17.392278504048058 22.079248174655262 18.941382668525392 17.72442319751088 16.766461409652145 17.347009107777694 16.317880589480193 15.10183089132587 16.8608059212122 12.25710031925596 15.586334183678085 15.133017407448367 17.819135468196993 13.204774681804507 10.596374172450991 11.540020058263167 21.15404873111714 21.34454159602899 21.871465176641784 17.504145807385854 16.11115200166065 20.81226134099232 23.001183022801833 18.9008477105448 18.66233343980681 19.652963304526654 15.210353164507 15.898965900571403 17.34924135957965 13.362419454853882 17.073615374958486 14.204968420950495 15.254767229092572 21.657090388448825 21.6092763854633 18.558297945414296 19.860561068271 20.43915874872369 21.459655214164613 19.170081747870963 20.059072227717845 18.826448948734058 20.094468437254708 13.149949919315883 16.524153922860773 20.284037548102283 22.532936364971643 16.93228059500384 13.342439692973743 15.636620751433897 11.36313316502082 9.149852985351664 12.107799583326685 14.83376728643412 15.737311221632439 15.112707951709565 12.331948036297845 13.500931196692214 17.40333985310671 18.407240841071093 18.822034915281396 20.14183279227571 12.394773349655201 16.226984576117367 17.411703750399752 20.83065502290071 20.02066461832386 17.264826622751585 18.97339482489347 14.794766030492164 14.874842177349676 15.465710040798273 14.582734861259109 12.642299784660075 17.63623716989484 15.9603709258515 18.57357104257791 14.886269190101151 17.54721578288617 19.393584312981357 19.819600585434955 16.123627414642247 10.187148626409696 13.194262512985079 19.81427486666531 17.253103768774036 20.8345615111023 21.903588584687597 21.399276705499485 16.0741067628631 13.085606657559598 12.958185239660695 14.46137150414032 14.963632001623997 18.63777336085039 20.080767842282704 21.227086916330475 19.639275432275703 13.62524095513211 11.806420771628158 15.165575332781978 21.966166190773578 19.215067969581018 15.502328246563186 14.055534047213069 12.831513777768157 18.54917261596127 15.503842810113326 18.30247732047116 23.741835588468202 23.256435390635925 23.995884212359208 20.463101360071498 22.207562043887776 20.708515048771755 16.55761924856522 17.74512755516486 18.305555567932085 14.898040930865886 17.776536377799452 19.075759658757057 20.433013806943677 18.934303496531395 14.300802587083302 14.201393060519468 22.12973958038294 20.105011878198827 21.299219959413673 17.437906636741285 15.752828820980767 13.546046164084343 17.224637154856495 15.801698770300243 18.141414598934976 15.12918148816042 11.29541250834277 10.723195622467548 11.845766554860276 16.159422963384298 11.871562904244072 12.751866040722028 15.471254963496946 20.14429009682857 18.44730616739463 15.300661204037656 17.498754578250608 14.168825763018535 20.509601256983757 18.029345342920855 14.711839875497551 19.10791100137223 18.367121986956157 17.855574510627385 17.932101376365868 15.495392712564353 15.77558303633453 14.631590377987035 17.012672401745043 19.114868727582632 16.858600890045523 15.46827478949993 18.417492635450028 22.56972526451075 17.699698962075228 15.341957770821155 17.155928696176147 14.24568699067147 17.68763163333476 20.278998463782898 20.56923550812216 16.218059990284317 12.41272206576164 13.22582468484884 14.431039188810267 19.56597966932845 16.22713155400992 17.11714091516203 14.84772936364516 13.202132829676247 14.397429811944718 19.218982687634707 18.46141173864106 18.471752013377277 22.694827543388595 19.346741024555588 13.219585606348906 19.17279208474283 13.97092412627023 15.050271924448298 18.056805730064177 15.102952142963831 16.751026559688214 19.826484848214356 14.166911888034418 18.408247773957186 18.223351118907708 18.48783807015994 14.731795648450905 11.61881830913996 17.134917183918287 21.76501563346745 23.60408196844475 22.476547200780093 19.99295440346519 19.993795961393168 19.127233802443307 20.443099515421558 21.6078476182933 21.110893297592742 16.538955283665867 19.839014822125765 21.366819166501728 16.83647550014346 19.482557276716957 13.626123664172503 15.769828299819965 21.4244380799985 18.622947960580746 17.79686791992131 15.630915462209487 17.768520227899064 22.17492146704968 17.797427234281898 18.04464129302493 17.104308791673915 21.210714434559485 14.421703636482555 14.587622735934568 19.685302379692125 15.480527758756685 18.406382646165397 16.433130144297394 18.110483576791328 21.831341890305772 21.85761076142313 14.38256142976412 13.521177119759844 14.492419688647884 21.301583029725244 23.03255199652247 20.048725268947745 22.67042627680276 19.9478477253954 16.25830644260697 17.975352446901944 21.573732537643576 21.7535264398251 14.131983192046688 14.02380083444472 14.696667637412173 11.210308908216946 10.913753572037443 16.127200052989505 20.424239258072635 16.674957087108922 19.415949291939867 13.175489161959396 14.078969315639897 17.340215938830934 18.014634205103302 22.03865732586743 21.307460891520563 12.66389659834465 11.902620963332781 12.271518258473996 16.302416368613343 22.43005584638465 23.278928262577704 21.991433507688694 14.068019860840415 13.70433285333619 16.41704418673003 18.517039734437287 16.104249321915635 17.94205685498493 17.7743617129193 14.52264076716428 13.669651666803937 13.726423289053356 13.038793893497825 20.62667121328145 20.93431158131407 12.15883129449685 11.141398735172327 14.89502218004754 14.83102319072984 16.579054259918617 16.495175301651425 16.56558036293454 18.327185362849086 19.331668918267116 17.71034815910967 17.4965343212097 21.291820958145227 20.57587023169544 15.830065664675514 15.228007035753858 15.152626293318844 16.492673966962435 16.521025426255182 17.482368890821327 22.58563254638849 15.074356644597273 12.965650372014972 12.209505755109303 15.670989511513561 18.853932572328237 12.866926508607776 12.72409439840199 21.93139024577924 24.684987444295732 23.59045563056638 20.680669216621148 23.7636224085843 24.48052086434644 22.975655862764594 21.766288688352102 19.2437645256737 15.489077349910165 15.167698400145728 14.290106411958888 15.260786139750358 19.93521242243445 16.95385505874861 17.918127657994592 22.83803003705923 18.510390513356736 14.515809372885435 12.451080293073064 17.571266571758613 13.338892103241061 15.199528171070819 15.771539809967205 17.31044510664422 19.902385402544652 15.218903204694234 16.56444592500933 18.778437742232388 18.910702665226715 14.525300075878036 16.22041474002224 15.434733358939315 14.819387417555596 19.02646092692825 15.661761698722529 13.266828234523105 10.555113806652427 14.901246148876746 16.36126990216762 12.761245923436505 16.03840144195862 15.50105217609213 20.797341337407932 22.829822641258392 22.416003160148232 19.946650864610714 14.223583092022094 16.149943655744472 19.990218524941493 18.495030930912662 16.21741238997894 17.106423864495067 22.658819859244677 20.854536736171994 14.19517545459135 12.141229926307568 16.52173601251499 18.278083098881115 16.285872809706795 16.77679795043378 19.696658835934173 18.15869611140039 18.64679367889783 16.43327942961751 20.29051016810823 19.041535510946655 13.28891183654831 11.95696744225814 17.558764278739307 18.162419334311522 20.058027882748586 18.899030847803544 14.184195422660018 15.366410535719247 13.57082621869085 11.181062739273358 12.665486372180906 12.413698481003886 19.797785463162313 17.78896576867881 15.958062535997264 19.07510241801656 16.65305695369669 14.726456038687855 20.621652968913853 16.859158604384927 20.819877025287322 17.018706745013315 12.727955851205795 13.814943931038776 21.40809121206113 21.95798980392477 21.296348619081492 17.00163599521484 18.261088196155804 15.925551459186384 13.668471679496264 15.518532903121358 18.18260941496568 15.515940429725466 19.687079574841096 19.789997889209552 15.77720723444801 18.43643089931706 14.506523440701713 16.771874752989685 15.22884102242226 14.254343511241737 16.523148524601332 18.2441167814745 20.990943748430006 20.838637691020264 17.263888673209795 16.53244029603192 16.923817114396176 21.81728265127668 19.942558436589167 19.086713557181984 20.49326885641595 14.005808711980501 18.841055386727053 16.41851873725841 14.854331208951121 13.48835798244124 18.722842141185293 14.746040551409875 11.441812830700407 15.03230852615092 16.66731057879978 22.595447483767416 21.387964991203425 22.368944850573815 16.910636702730287 20.30445598586383 21.94426576562101 16.913885433982248 14.456090086979248 12.96805825754104 12.070387496363889 14.46753281253483 14.964457306823576 15.852358845992175 19.175579852568266 18.568960682277908 17.14992354041515 21.479413671553846 19.58384832125971 15.698256360905459 14.966129203867721 19.34383734071694 22.939589281439837 22.26107340475218 15.94528185475056 11.374787638251346 12.6408809634574 14.859440375681936 20.791420425265205 18.014411835305786 15.86398537032688 13.284405586019925 19.011211159867106 16.46973238366719 19.42115285003622 17.782395695835017 20.205070861771212 20.650830382854835 13.426624528857122 17.84349774134158 13.202135734515458 12.209623521628997 17.009667991586674 22.413500081835057 14.926727325071793 14.324272982586363 17.136335393728046 16.389873331339285 18.277749466877093 20.785670179860876 19.38048490586389 18.939850780963276 20.314377079405865 21.282243832786794 22.477827856196964 23.41001563172564 22.809737514805498 21.4345253814218 22.172052382716686 22.145376403421864 21.7565698383175 18.341370479503187 19.779839255751778 21.650971303693517 17.456805988416793 17.43195270406136 17.684897162941102 18.777941362884786 14.415008451361373 13.448435079206478 14.566414940969091 22.85669313050006 24.68151929038421 21.201985443277657 21.148615653567393 19.597315966290726 21.51315136387279 21.75137610135358 17.19231423489934 19.167475740735284 16.50206464242701 20.00009703797487 19.560649243810538 21.50701141952511 21.572142252552226 20.969714889430847 20.162100962753698 17.113059885027056 13.272511736079649 12.338736661436174 12.1263106838224 16.24353956726103 18.58976606113799 18.068480341868963 15.359029318458484 18.016448285566824 19.776510210359255 18.26519222511327 18.050787145103612 21.66671240655236 16.134924328659825 12.253516114372607 13.99537888588615 18.698673627823762 17.532698013721763 19.381097528612226 18.925416362544116 18.02193162021708 13.465471037590643 18.150957164606304 19.803094295328236 16.246207877547413 22.552809231249586 22.160527965536726 23.1168158720243 22.49453268700743 23.272993930599565 16.52222495685534 13.986580155132419 16.81572395574969 18.659513958901485 17.52545150166215 19.66802275825469 22.318890731818193 21.49249793616789 20.084194269071396 14.535143497886287 11.921813215840706 13.725724803966305 14.859594169101955 15.872530192861879 18.23456539876844 17.09060074903408 14.478814447936857 16.03325068797031 16.20170033795437 17.818716976839262 16.06990659689159 12.530752516185805 12.974494172828958 15.04515060576512 17.06484401733691 17.06526626993037 15.207116284667222 19.009667633150595 20.25116060158404 17.927184264492194 13.414317264574422 15.87718803023052 16.42962158126791 20.316869505909857 22.136972131189474 21.505815107986887 19.840120049297962 14.978025696876676 16.887896226126223 19.03166230164204 15.270209784264404 20.54380650163727 21.999686387999986 20.288839764541127 16.754264674281632 16.738075976036836 21.274985233636205 18.102043217788786 13.589882527220265 15.568623540590094 14.446041582658184 11.996116706928314 13.65334606345561 15.848818967333358 16.952206199070513 17.10421854288381 12.520866334809181 12.367517748715741 18.265395447694996 17.95801645256293 17.219093372737824 14.704339566793053 14.789124934276954 17.160501811604252 14.795011399208473 15.770860691026588 20.564988651454687 15.228511189349929 13.424884149708463 14.652483553400424 20.797652740403247 20.90094482324524 18.173659122013795 15.485684948186694 14.116437126511304 17.223561579018313 13.8081925372471 19.07675903980437 15.918518017752005 21.512573368870424 20.38042660875234 15.840160509691579 16.34106187966613 12.360373667244733 16.09385599278185 17.02898379005856 20.334061740850544 17.793922216317302 22.751969378029273 24.272781317320387 15.488457587083609 16.97060405652907 17.023641774009093 12.862044145262635 17.304046883189816 21.51986665834765 21.997322884274666 16.28733669497788 14.792356012759459 15.386786737472594 15.389090867191278 13.885851820789384 16.275480384921362 13.230225518758433 20.431632216959034 20.741052055052357 17.135691101160027 17.936647632479083 12.749252023686157 12.43434232094228 17.876243170205125 15.814120511135807 16.987232275919716 13.30637743432748 16.767538152655042 20.756744215533065 19.36714612292599 18.41836706760524 18.163610744378214 19.600712128188224 15.593350648974841 18.720563514601352 21.371685148488414 20.859183273044653 19.895265195334588 22.08340080836694 23.168707686933136 15.697842085721696 17.156223904138265 16.29892956039736 12.505438642572297 14.874440282051799 17.334988526140748 14.481030319662723 19.47964320324603 19.63755292301998 17.043294155212795 17.666591071009506 19.209428430826147 22.021923792312894 21.029831562420462 18.62757329988156 21.31056262097677 18.03737877918498 21.207770434888037 21.360315950093636 16.220063578490176 14.5794748461636 14.230340295898916 19.558698468096186 20.070233408623672 17.450340990441035 12.995274590154645 19.068600434534595 19.70836393294692 20.198729396091196 17.567607664257668 23.23600730053632 23.32598988464939 23.564004121684604 18.727420785558568 17.117027399170464 18.35342094895373 21.140960324683004 19.101678156092945 15.040425788516893 17.40736909066937 15.02999113729064 22.711793588165925 23.150915455620943 14.027954948713894 12.122651003005258 14.131212599479078 19.499711800469754 18.569088247301202 15.026445882200086 17.85011687597273 21.24006816803453 19.60142634545683 15.765440034661044 16.819927676931577 15.35499134206528 18.081945942844193 14.291836438427252 16.851241969641972 18.44095892438591 18.555213381769978 20.735910944015156 21.45119910958369 18.11629123722877 13.665031098522695 12.3754621208867 17.261899089182208 18.282802068985635 20.449184179340264 22.527719461685876 21.069356694798728 19.635943917655045 19.361606753389516 20.66051833717726 14.247983185517608 15.31408353636651 21.627099810590316 21.582877239716463 19.48793947727387 23.65391449843633 22.568638367309944 20.11319646645721 13.90396859200072 13.226296806866893 19.95128906430328 18.500769980191865 18.561060696050404 17.740548723758486 20.48759962087178 18.7093631450337 18.515178418807928 18.425920459879954 20.46472283827361 20.403979916739125 17.842660397541177 18.29145260059508 14.571518067553836 17.671042240786495 15.286054314895436 18.438894762566353 14.332498401206845 13.37923685295661 18.677143446231486 22.22960547495866 20.42150191344412 21.511154031241798 20.002623306887074 18.987282637252353 16.72544337743156 18.545945059934844 18.353217889340197 18.30529996789417 13.997970945042658 14.468215319067179 19.518949771875015 17.906572410710364 15.57426605395248 12.263433313086889 12.965969284537708 20.74353438666093 21.56527834037218 18.888865684991057 13.797881927781612 14.534200020811381 15.304761810719507 14.460484133334758 19.519105889943358 16.772886332171932 20.942625986304044 20.226274113421635 13.58110322380168 14.400416790548377 14.588426208249045 20.623371495035773 17.976012874657513 14.0329887548799 17.58036724621842 15.56667537399996 19.285252580936394 16.646774921670566 20.084358116578976 15.593120678693232 16.203196804101125 20.809172762054803 18.679569908754495 21.51568969757916 22.47085648860364 21.22625602000108 17.48849670599268 17.003732165498217 12.28348599630079 16.98718917803598 18.620922702219655 17.245407785490066 17.166659092321694 17.44225427982216 20.548689079045744 16.399532420125606 18.871979691755232 16.260425189765293 16.5930667108302 14.538506641085744 19.319975627469685 24.50524437082532 20.5039334115185 20.861007919792904 20.637971861551545 14.010991646070787 16.54640713332547 20.318611572287434 19.989127114967257 12.636067217316183 13.134132405953922 14.54249884337936 16.83874549086108 17.11003309097585 15.903857600433742 15.807359070976377 23.31095074224464 20.61733044332267 19.936318663866388 18.268078668270103 17.713050722844503 14.491329898522432 17.337069118774142 18.008482353397316 21.876612898050336 15.098381484548815 16.380962758339265 17.254539749040198 16.374845726991644 15.62889761159458 19.900220040349463 14.781816158576873 14.005476006334364 15.570508060383412 19.55540807128818 22.059590582344008 19.343026084264046 19.50581137709148 20.488688768886536 12.95339551142642 13.781232581408942 16.551521954242588 11.377934199137016 15.621937456636717 18.086955319855395 15.873189392129097 20.461235535452598 19.68357004583721 16.85089555613784 13.384706601239351 17.91213141442735 18.605493977087818 17.51098961396779 13.882500716539193 16.986938278578975 21.426915400823884 23.73603865698305 24.821354271484005 18.695214899467725 17.05499310185381 15.498098531394476 20.298631586876056 16.010465145043263 15.971027231338674 14.297570233449289 17.655462385908812 21.40636514104683 21.796596741630633 22.15663335539255 21.549317070219786 18.977322789390865 19.82805197730003 16.06406325193918 12.62558993328265 16.961973508914003 21.912595593001452 14.80482043321285 16.878091829652128 16.354797060297084 15.423443942416693 18.847040350519325 20.947892351105107 16.21555658642752 11.565274581080455 15.364558653290947 18.2129453266597 19.730996205598302 15.47513423338133 17.46668434783768 16.476103124456454 15.067038191545487 18.640081195849366 18.270141625134364 11.943023684601215 11.650147408246713 12.43465038603751 15.796399540061525 18.20050768394699 13.571454440892074 14.14880499942364 16.66616308320538 18.61315882349489 13.99206726277017 15.376393597732406 15.316570346864388 20.802789848304435 18.50724514825222 19.296886530869013 17.002173823480625 19.635754762136646 16.489609990101258 17.183299779201825 14.646064822630985 17.90118554675646 19.069712448970876 16.16688734055725 17.020144465119063 21.76041230604853 14.465201015278739 13.402722939777323 15.750336960016266 18.875630367367425 20.09159988845676 15.928572094881883 17.286377961650857 15.397713725455535 20.857172816864445 18.16458028977203 14.666667225383987 16.049121130813184 16.721706646649828 15.718305563237273 14.22112411327523 12.91300560984579 18.30531300585326 19.95404333440415 15.465163749825358 16.706383052636284 12.31224041705369 12.003795555348349 12.376545594923765 16.076910480797004 19.840959272143124 18.920076211893686 17.678530469636087 16.68207198842765 15.698260841913457 22.418593579047272 21.91022793205727 21.49062975373452 18.012161338775122 18.073326893984273 22.035019589378134 21.18778005474463 17.865260100812186 12.47520342480967 10.852202198842496 18.33279955739412 17.524994800452546 15.373079072305687 17.794877531548227 16.58790824674954 16.111598001753954 19.608677535144732 20.374020136962507 14.473304351140042 16.87931742760992 17.868847119272782 19.321309409012322 20.708003906241924 15.535691139861008 19.790420016287847 14.802305722059483 17.916867709214007 17.260996801233148 15.677360348142763 16.053290019073753 20.10161930052341 18.696980087272067 17.32789386530378 16.599808666952686 20.90782704017242 19.276409243845148 14.660909378860644 18.05592131658101 15.318233312270431 16.714112778385232 18.163567061694213 13.16301321413132 14.52502657151467 18.561397845752232 14.558834854588822 15.53165854350148 17.801242358372903 18.221288161718874 15.138626840296332 17.784664136849912 16.43550076115802 19.960984492918026 18.319924872569278 21.27903902166916 22.520314330983243 17.480871167723993 21.85339935865398 18.979739305233597 14.91991016966412 16.953041009213788 21.52747255430621 21.466849101964712 15.285352352255055 18.28094481491793 19.34584454496504 14.220015630636983 18.977077824672268 14.862077570616353 13.438246414570049 19.481472196101247 13.306627853097654 16.059873731997712 18.32344802491841 16.832227284315564 16.469218652819595 19.75139587903806 17.026819055672217 23.082167216641206 20.702263478366177 15.145787576162466 14.740862513467855 10.669337651083687 12.050859025670585 17.65