# vtk DataFile Version 2.0
Ocean Simulation Step
ASCII
DATASET STRUCTURED_POINTS
DIMENSIONS 200 200 1
ORIGIN 0 0 0
SPACING 1 1 1
POINT_DATA 40000
SCALARS Temperature float 1
LOOKUP_TABLE default
14.039425149013812 13.223171165409745 14.337939948586412 15.680943445198507 15.467616086226885 15.266056968156676 14.606904018286622 15.862663177405727 17.886110170258195 16.86877455403019 15.43545867733344 15.18265017232613 16.580301312372583 17.908860083343473 18.195610755248094 19.07286673952766 18.75121081135556 18.871252272305007 19.98964711119246 20.715580056174897 19.151984377175904 16.307391549735833 13.971972001283305 13.428626663893997 13.98104895800892 14.438194180838337 14.747788255899268 14.885870180703447 17.306049210284435 19.539142196524676 19.32651088559774 18.260784269494728 19.068867177030363 20.22752008109987 20.0909063825864 18.36676046180479 17.430411612343256 19.171770843387883 18.907984457191017 19.577973257935515 19.902296994914533 20.36895517303219 19.859655830862927 18.974533401630584 19.93389065440486 20.354361242815145 18.23777754752542 16.355731978425105 16.175924691768195 15.997857744766304 17.132251119993626 17.868001145593194 18.33822772545736 19.438597240894087 20.066499039521467 20.53217087259847 18.367516346566898 15.824232350147199 15.019496779784122 14.2603255658701 15.756555273608841 19.48217433842663 20.954096393720725 20.47587044185182 18.820770739424027 18.032223831137483 18.927019009503066 17.420341746572454 15.46613622966548 14.574290647441359 15.799933170983241 18.696474625065903 20.117167979537196 20.001487046060507 19.07752253078049 18.292142427389862 18.56980487320841 18.527846079927286 17.891429116181566 18.173507312571846 16.92762639792771 15.605572558526676 15.929146187807234 17.134661621517996 16.745546248403002 14.240032382440798 13.560065086352143 15.749595043547666 16.56506328040009 16.969204532580545 17.26944191214055 15.828045039546225 13.997796876563259 13.321602219200361 14.085330805367088 13.680522396968218 13.405250257006198 13.378302488262134 15.15171651763213 15.922552252817136 16.602121726160014 17.935121302423035 17.104403306858202 15.685077718873234 13.991315395911332 14.244023676887915 16.45802829838649 18.324416999401357 18.53749656209126 19.048929680063956 18.84284201500911 16.821566674593118 17.475955640574252 17.000740742304988 15.733891745807927 16.832059978919652 15.762057987160105 15.334521239651375 15.715343905640605 15.843334875773403 15.429268624869565 14.178607335020486 14.546648262011777 16.67518916016863 18.29670811658938 17.323729125124785 16.954116455856326 16.356227920158556 17.23435983848802 18.46109181951201 18.185854150229435 16.966303606590618 16.624032991515076 17.994571917159057 20.31018725035543 20.186660528224326 19.213951615883012 18.20248015243159 16.693993518740537 15.430517769536086 15.118654137402293 16.56223007192841 18.93178763688525 19.27371821805787 17.70279287114844 16.581198410546694 18.61129653905782 19.562926486718737 19.083933568510577 18.54587831174488 19.900371943060428 20.55488769205613 20.353134980155446 17.51281047436554 16.225168957746998 16.98068658196693 17.86484390941682 17.512648125163107 16.532759107305125 15.790702974174636 16.080027548614588 16.61864750439227 16.775501079793298 18.620274437175397 19.667281837161116 18.533866609315986 16.53891051524058 15.390328708205553 16.413661678779597 17.43872804307456 19.49698004885209 19.624238034057345 19.166169492030672 19.62597493847019 20.138475957222457 18.914556557770734 18.405996386759835 17.64163775395223 17.35171844155028 19.219047863653852 20.12265691496453 20.434203717200997 17.797965432534554 16.075880051138686 15.920190025333149 17.279800443857095 17.855858184797764 18.645484733774815 17.775847774482866 16.664777499962725 15.057364183457885 14.606390163980294 16.151183953392767 16.495492933445895 17.020731951364905 16.66292708480496 17.646118588629086 18.2320386777503 18.442062578885633 16.859633439489297 14.703894980884732 13.958095505370833 15.838667671339376 17.709414449319787 17.715456872869755 17.53480190345737 16.202696348346265 16.984926302112214 18.332125631755396 16.84150386703341 15.663222879789751 15.69343884419132 16.687017213481404 16.87293415185699 16.78954645705021 18.846177184785233 19.082787183415146 18.900709573021658 19.848453343383678 21.515395955615524 20.4552889990556 16.973878625431656 14.343482513534909 13.37697592945233 14.00247110345923 15.357375399499466 15.333103427067543 14.696475046956548 15.157627457701457 16.368793450013406 17.187924131304097 17.68069849266048 19.928752207382857 22.007338766251305 22.06166590947628 20.58245019338896 18.54138092388154 19.901701990393363 20.176414307137883 20.59228066393625 20.071361342457706 20.400620988820698 21.091954329999773 20.822451032930665 20.46454215350488 19.35823765018422 16.76886792172487 15.854922713773792 16.8440118619676 17.198305074027274 18.171832062807738 19.4914607491375 20.203862039907737 20.64522210199325 19.299243138778586 19.04613044351934 17.836889849314137 16.35501601649575 15.521130110752097 15.048899844790617 16.500634729746594 19.197548631412552 19.76479212625478 18.161875209978902 16.552299423911247 16.29018711521378 17.18458684348791 15.915596972926878 14.975477849676677 14.822312329704465 16.636585210420265 19.833311106676742 20.41646804841289 20.582006499852838 20.73910854064497 20.815401673528495 21.18857936605684 20.75485345589428 20.361502287821196 20.11308385928471 19.077525252848485 17.43232594290339 17.015343636390032 16.586222962892613 15.42793698493889 13.73097717728051 13.976251993332802 15.60949043706376 16.053940704649605 16.889179370201166 17.206469568248718 16.896153474375723 15.255736085089298 14.743927178604151 16.422197566050965 16.44798914007691 15.916984042536312 14.314177150763522 14.846040415314057 14.462829983907486 15.559276095148268 17.447023263810376 16.840349937076326 15.771173651464578 14.644986727542978 15.183519693728012 17.212117038924248 20.007282910797073 20.148565772349304 19.83512088214313 20.169704893189405 18.77425366806216 18.365196343142518 16.531860802448772 14.76597212107182 16.029839682309433 15.862261122803734 15.747412110457853 16.095199185469156 16.566227013800916 15.896616270179353 13.975266684567721 12.814710298446476 14.761806519738306 18.421375734138522 19.351731584945398 18.639823484964058 16.454031762651837 16.149527779253557 17.199047706368937 16.5161027247436 15.770866772807558 15.753739773633797 16.362792576406868 18.641402429938 19.118235192456552 18.753806695697822 16.544490646823753 14.343338064204293 13.830621462041046 15.719363845760238 18.14839934778768 20.12240643357038 19.512474511759923 17.603426083873565 17.62539142872743 19.8992943403084 19.780794222168012 18.390551873507306 18.083898510732144 19.243645483124077 19.575346955620613 19.225474132721665 16.386122146962023 15.534478918099971 16.44684767026641 18.10605023804925 18.950315232359866 18.30283417861416 18.076061749706334 18.100886442173646 17.257046251961278 16.66014120276261 17.520721379138855 18.72646712486208 18.457668668770843 16.497771871241138 14.753216981664655 15.567517646984294 17.488889242634468 19.761953632321557 18.948099818663913 18.061517207830878 18.53196032777462 18.029967107027836 16.42133665682424 17.149636472639468 18.159290408403894 18.52289029153754 19.091832650522218 19.213970917922104 19.67076992878456 18.89363063977121 17.74814057258868 16.985783325517836 16.402756887349632 15.14223762951725 15.803933667264783 16.13952759612122 16.291078408647184 15.7540095200239 15.642461506952266 16.93268523065076 16.710490896116816 17.011121749036015 16.71281630058909 16.60161277277644 16.273067547071648 17.358966764964958 16.73196921335278 16.727157460221832 15.78544094976004 16.92001050537884 18.284421533402092 18.32190550314704 17.85301957124466 15.955454660270613 17.14087725293584 18.869925033990878 17.843852795066905 16.933192623816492 17.14372808584919 17.17127516129629 15.806456134624854 15.013010668916015 16.36775851818177 16.89386489593178 17.803932070450745 19.237426932263368 20.750088923720664 20.326094337367625 17.571493739787833 14.925501787442668 13.711956958980217 14.933238532902246 16.66051613619866 16.09726016563531 15.108376323322567 14.03164137873239 14.219571003662486 15.554771559192499 16.487407602791997 18.836968016440856 21.914531540506196 23.050413117729995 22.283204444032904 20.058358671832572 20.74900454728776 21.350553718973366 20.955770691526283 19.872573488061 18.956312352376045 19.179238574291755 19.554354427631733 19.294575068201205 18.552431263427657 16.543174055818643 15.418064218655042 16.73467405203246 17.82367971564024 17.82051606652319 18.664612776391444 19.12866125847596 19.458479712279317 18.00032444791138 17.813567553880794 17.299429908781526 16.405392677445192 15.259582532479989 14.296936043293815 14.662563769358396 16.026017827636498 16.85060366522783 15.604490590930267 15.55750751428818 16.93943066017166 18.208223437236626 16.9161025126899 16.184148359335854 15.766909087417066 16.243453132856946 18.958589940871967 18.741609914604012 18.230629693114643 19.17768162410353 20.223953500631232 21.16054783706541 21.096273597822393 20.519716286373235 19.700250203442774 19.012263513011177 18.22544192520855 18.166044463862825 16.674823528546536 15.164604527004837 14.866825939331168 16.240301694269267 16.918522278292247 17.06383424985009 17.742656754700718 17.37705155255748 17.938329249222456 17.35878127641524 16.82693729655175 17.53778095076933 16.675943157735162 16.26298473567753 14.9809661525876 15.434270198341585 14.383301823091182 14.794773946402406 15.721514349350672 15.857919337264079 16.562249988024384 17.041445779063807 17.91907201355932 19.104806924745315 21.00697803948547 20.01579900427861 18.546400071332883 19.55336860768094 19.235429912910067 18.93527266815331 17.223177838111205 14.989186034785652 15.952856676462408 17.538742007551914 17.525230219383083 17.868133235607914 18.04020380294345 17.03892858416647 15.25899607184214 13.159965343546647 14.535190365840789 18.295659472342578 20.362293474959255 19.652313524202235 17.920702486696186 17.252015829151365 17.400854596036538 16.92286228785653 16.568074327107734 16.434843332290097 15.664069524616702 17.028041848929117 17.561355160294546 17.301168370596457 15.398859474822231 13.503945533858326 14.326524015900329 17.744962749712734 19.3993565331902 19.81703143734217 18.514965899013745 17.90898167166466 19.293161538939867 20.273678414595683 19.34287250991496 18.493984360516997 18.37890672527489 17.445797879947136 17.303781749184232 17.48334877779992 15.822052381023262 15.986747554038981 16.081256737028877 17.48489375206732 19.614304016734465 19.66799291985996 18.439288019500694 18.20836305580492 18.383772873529317 19.028118130216907 19.3407745537765 19.600198789444395 19.35922355257218 17.97412265790793 15.951206517475994 16.877822525489016 18.88832483898099 19.78363773461429 17.43317716990484 15.687398868913698 15.49764681006692 14.06415868859809 13.069499493639624 14.691026453024282 16.51614867133291 16.96296010103624 16.83083298730168 15.84626183508614 16.3096105679409 17.545397805987648 18.24753183531789 18.59827678312728 17.72798153158374 14.935733216269675 15.05090339898929 16.135398410983402 17.78439441890971 18.4518839387025 18.085983442104485 17.88290396051919 16.162947316326928 15.835439690338456 15.957826165212667 15.839956123011575 15.5142580971489 16.92378243733983 17.068778279579448 17.029639193425023 15.951978091109321 16.61813026416043 17.76338393072775 18.398579121885753 17.08607925055099 14.25212614838934 15.01911828996736 17.40885890632771 17.653105858064333 18.361715092518473 18.954739530354953 18.49968063663487 16.668549601933584 15.368256868327899 15.48274977259264 16.13813611688677 17.42125378466098 18.860832214260427 19.57321076491646 19.446754096951107 17.788942642062686 15.451305550238391 14.536063538191096 16.251020148195668 18.535453180520403 17.317510714447735 15.439250085377894 14.244274987886714 14.564902342263116 16.096037043393565 16.16159875772901 18.10065805946568 21.68576058310592 23.16678117164264 22.83222627779798 21.272532389140927 21.534451219210474 21.292825003239304 19.985254407011812 19.099349728659284 18.1658093800703 17.29402028338517 17.79180409466937 18.24339062130169 18.52582883972977 17.698290674077267 16.236462007178616 17.024203810912894 19.122870253988765 18.80220142352356 18.333285363551074 17.349310410207703 16.9749869318842 15.984669687589623 16.52421974387152 16.63474779298721 16.76235676415689 15.703628297082751 13.956605173431948 13.71215540681585 14.73863762016657 15.580512484894097 14.342914723713974 14.676122876586684 16.311445960383807 17.936123468197753 17.577070604341255 16.43472529508362 15.831937560252408 15.513298783808894 17.6939637866571 17.51289596592676 16.664010588684935 17.93964490186478 18.75332319656337 19.55136051829121 19.651106362490893 18.804039045746862 17.712618805849644 16.868775392200348 17.37479780561167 18.20672547761102 17.23952692747934 16.448923236792144 17.443297885797193 19.07981840655497 18.08555360647922 16.535820440375172 16.355296391310734 16.332509047600134 17.615622215955042 18.248611746061858 18.095519034766387 17.26527557291513 15.708773218135253 15.519236938048206 15.717380416950085 17.06809622818193 16.166234270021068 15.386840645852782 14.904854635163202 15.163882853373623 16.378839780364498 17.914257067522957 18.360432335992094 18.6383811147259 19.662846847312768 18.137288314001466 16.09609280440566 16.913939530463967 16.57793871233596 17.28554007107886 17.266412088736505 16.155597596263576 16.860690589412858 17.64516704650195 16.979524291985015 17.97248333443989 18.143954742602055 17.711644182605557 15.818352747791197 14.115764587294734 15.993897330878816 19.594557213639824 21.46132750121503 20.798091861331233 19.146454539076853 18.475344482379292 18.057473586349847 17.965751756047002 18.310090134980474 18.22155133521042 17.167486522518637 18.226609295979085 18.510462327736207 17.462078794436724 16.706751909196417 15.028881304482054 15.841656584471716 18.02831408041611 18.26946970193153 18.107985194908753 17.600356839720874 18.404305527107937 19.746188600170036 19.010989949840518 18.17248458005491 18.127355862372763 18.869299192797335 17.320174227817223 16.969014681230504 17.602112469665304 16.387995405992307 16.913993681157475 16.656727438332883 17.508588127740286 19.11897130712709 19.224239644621214 16.78128226687855 15.705817762112408 16.736601173926292 19.130677158470142 20.62224050616582 20.589449478582477 20.55841791418785 19.091176754139124 17.818743161826998 18.519595848166645 19.32557369519026 18.74204731009061 15.902146657637106 14.442505183405302 14.344403136673458 13.424027589925359 13.523541313504719 15.709932144637433 17.455758614855018 17.372838937748085 17.399240463402602 15.733366957001188 15.519513393794671 16.879974989248385 18.614087295416212 20.061261412277453 18.987581196960164 15.177448770358502 13.685431826491492 14.437890352577519 17.03288461981543 19.616245670791514 19.883758974793555 18.565336872097852 15.967001092533318 15.733180994923192 16.422628399093185 17.052123238414495 16.81781069881159 17.695346547684764 17.701616832685943 16.157273245227135 15.31653421072745 15.152771185297778 15.968047201885637 18.283590035245336 18.089971735274073 14.615428954160297 13.984854635698603 15.617565708616455 16.248814878365504 17.348935687246684 18.062716690640467 18.05521580605398 17.93640003702854 17.868670108383586 17.76463549599095 18.321163176120866 19.59114144492024 19.82390410569774 18.77572594847141 18.18783334840225 17.666317687579497 17.031819844145097 16.789391639841163 17.985081075207106 19.273758738409786 17.022840997224773 15.170074962657232 14.745439231575451 15.65725859104594 16.228430127289 15.13481859261946 16.566691782156695 20.881474384653625 23.017168036622063 22.67135808818046 21.728746818505677 22.172560962268907 22.305803505369987 21.226420176202748 19.871527675576786 18.535927941858603 17.00422489267645 16.87171531658177 17.006673880973675 17.85330972757911 18.594096751542143 18.020667973519377 18.387244711883927 19.218215598382066 17.597998801469426 15.904921392853291 15.156181735410316 15.9722977494854 15.582937547831273 16.07611664182101 16.4619122513089 17.31648150227951 17.42852806958582 16.07282858306898 16.079516929694346 17.00259697002006 16.62932945694855 15.012836643328043 15.276723281107275 16.213411397823698 17.085220353204555 17.709870280889604 16.51768064220926 15.060655816086886 14.130287970745512 16.003723774811462 16.632713779551572 16.051033287384506 17.526248354349146 18.543633559566025 20.19575791485926 20.988256276182966 20.32127870413739 18.165228972107013 16.27078795762974 17.03677426259548 18.393521864649134 18.03269310964494 17.745944881085062 18.82888831876703 20.229044613589824 18.76745112075384 15.817647822194475 14.77653952331168 15.686858051734884 16.931213512305455 17.325808222914162 17.760853498486863 17.77819735800295 16.89817573538741 16.820668313103752 16.960204779457996 18.026490613569948 16.96329068377944 14.893663691792593 14.276130230448883 15.749423147326926 17.132376316063965 18.17099733901875 17.733289642710428 17.0317040276423 17.221852845221036 15.924799284662079 14.272005682769285 14.837379522357272 15.551436464958668 17.718381551588283 18.167919591007827 17.622857158440134 17.814470930738782 17.15690698867212 16.701125371732104 18.084032158013834 18.069210670647163 18.61755777766732 17.19910696075543 15.379112420818487 16.234776411554034 19.34209267180618 20.915462983073073 20.009573495814724 17.97303830129863 17.3363618343192 16.38789642048745 15.742667097042457 16.50837832366333 17.314066876140256 17.182947090979894 18.10635855175863 17.725809671791097 16.66320791231127 16.972081449216773 16.091324783360907 16.245123944152404 16.33541403838109 16.23569608576226 16.878275740575937 17.53050367449549 18.779456073497116 19.432827826692098 17.824947846592067 16.97750707038357 17.68812208495033 19.530310532536962 19.076404555229768 18.412667602098715 17.978767905925718 16.378242118270304 16.941270230467243 16.3326335655293 16.44545426571416 16.968312330293056 17.979906398117933 16.294078642335208 14.816138918016216 15.714980536306486 17.467093773464633 19.75238923699359 20.266918700104775 20.389834837788705 19.126486801470673 19.603526211940903 20.014501268097895 18.306849382426588 16.720496086011913 14.886586762183773 13.947908768606322 14.869474659354541 15.614221022660638 16.256363587496573 17.122031328541876 17.479526834736443 17.420568351703754 18.068695892623488 16.995645038329652 16.03349623728735 16.49020972825323 18.95914162979619 20.63190512118881 19.546212623841697 16.148449053043265 13.617083657805335 13.824771377274068 16.177702606276206 18.501424191647907 18.382220991237514 16.865329322802914 15.884557288682865 17.069769782922165 17.440108823754077 18.04005702103987 18.035317185870852 18.55359126269653 17.88636035465635 15.957446879013673 16.52216375146419 15.850545222361763 16.01114863440732 18.317110174350447 19.15317862100443 16.054897646720573 15.095963693687732 15.84071738391602 15.985972995997512 17.188778646300005 18.314568692920606 18.290641154432258 18.79480266259202 19.31918072904815 19.475512747583725 20.077286129276093 21.0759688149888 21.238433976588794 20.38754968519689 19.941835796122373 19.914793449235614 19.490475968759817 19.06859109368295 19.4653287242398 19.315892749186048 17.328137302167843 16.441059159587823 16.85974295941428 17.127486059099617 16.000103106973036 14.934687578809644 16.72070430092238 20.60089700685946 22.303437931883504 21.676385649196728 21.435065026834287 21.46762117885098 21.624417165309058 20.53068565089251 18.884734174762112 18.479017555100317 17.993402473921847 18.15801877286771 18.14011379234191 18.94300499621241 19.529369225167116 19.82813261732633 19.345309199121324 17.478454491471304 15.131552144415254 14.22985825751687 14.775103811301571 16.26347745773822 16.706043239609507 17.07920977483011 17.169279843098717 17.829091918590468 18.097306182401084 17.44739350871739 17.35545621293084 17.93756832462318 16.37143999917494 15.002086086673476 15.72525611418636 17.13469716350247 17.901416403703433 18.56206919450133 17.645275996703944 15.963730014429624 14.832443006566493 16.666611376108392 17.888916724373416 18.00566016095267 19.840013530016105 20.54215577946668 21.23497240448893 21.32986749526335 20.50609304026846 17.58926378105816 16.145077383477588 17.455703194869933 18.64231983291214 18.73812866334929 19.587710813750235 20.375475200494922 20.179887011061464 18.21520136768188 15.579991171371972 14.77874230783998 15.38234172827518 16.255950479142445 16.90238022326439 17.817655043434762 17.5653154572844 16.70262477454628 16.874175133231272 17.303374135601064 17.777215775867575 16.587885383048416 14.794505409592364 14.4274012493973 15.768826012797131 16.7297500168053 17.188086826781547 16.560248319179934 16.951469233560534 17.854460598588037 17.309783830904834 15.960343503469273 16.374544705041085 17.130126097838364 18.841631387091574 19.501397654978913 19.397053859028798 18.685090170747973 17.135013012974223 16.692270760651066 17.572251743068787 17.833122139393407 18.97964518876553 18.592731116448903 17.016002111367932 16.56177811012915 18.43742801854226 19.813749381773654 18.45906982340286 16.17440013218336 15.707399425979265 15.077866459691915 14.550192278290929 15.562669534449299 16.557429553872318 17.25172198708074 17.215221864303086 15.59985552253843 15.209039909839408 16.683071351443438 17.220991227105518 16.729141972957354 15.760452319401702 15.787452466296859 16.386463920025452 16.768836053371974 17.64113870564403 18.538621011288434 16.767768340420712 15.981030736582353 17.258895258868726 19.385061165769102 19.76561023709868 18.905363900747464 17.550177837775262 16.18599644542939 16.38982060848485 15.67536838573398 16.730203536430913 17.276071325381952 18.509872149279627 17.80471833650926 16.377438143076056 16.255941681602746 15.96457891586165 17.450368499597246 18.216584621824786 18.978207183626406 18.77657569834107 20.587206795307516 21.220015509784144 18.62459861030133 17.469587201193104 16.330842193522557 15.009232870143647 16.55278787885094 18.530814732324984 18.646261163217837 16.840767483120587 15.961147466628088 16.011051802045024 16.412080897257873 16.056264931344778 15.830915045898308 16.214379200935777 19.099741052341994 19.942927656937076 18.770902865846516 16.90567739664968 14.66812341315252 14.402794780840697 16.34735899932868 17.410328627226875 17.51081888296622 16.126936038669143 16.49848273582145 17.968651505672863 17.92433961377552 17.918342811551394 18.11818037498563 17.817199058475676 16.569794370396114 16.99223753545761 18.859250202154637 19.094601374339845 18.966363400478375 19.998744271197427 19.899750172758118 16.734199662707987 15.85577673768948 15.658290698441702 14.706507281155849 15.833349050276317 17.135931485254417 17.148803885325265 18.528307688954154 18.985756421390217 18.309043999602054 18.309787105485064 19.53504056178207 20.472641421669696 19.93829953116519 19.074959176680164 19.541174122150817 19.746530578143 20.43959021021269 20.44081580486658 18.536702815481313 16.75043415562548 16.520744466105896 17.944322023386043 17.863230830242706 16.500777787495114 15.565076028895438 17.622617394507074 19.94287148013312 20.799143033615028 20.58676418586397 21.399459837259126 21.421130775833312 20.99627382495165 19.023902996097135 17.552043296698226 18.240059256450472 19.06108575734368 18.18356353323955 17.333193727449416 17.739242029106382 18.208641338255255 20.007807694633037 19.72230904826208 16.384753142864167 14.123335659348491 14.725994343528512 16.524586564175443 17.27083940234635 16.851674904088807 17.520949916217578 18.092164522111435 17.90410702476053 17.42209217712118 16.937261051687454 16.09654702071909 16.28157606845469 15.462026840852978 15.835101306246338 16.937489713598907 17.57083891731108 18.30861761826257 18.743177045995587 17.538196092059493 15.408768615404771 14.814996496806303 16.753487757132167 18.579533953911454 19.43862509104935 20.516703202692128 20.294019768460647 20.05496606469507 19.619627753730143 19.005879435322743 16.76353597691264 16.759524095054996 18.750367627353192 19.430434816604603 19.52687878405476 20.66690168000178 20.034729750259036 18.45337407091648 16.517987969492935 15.973990086829666 16.94777805508711 16.989392550352697 17.221284064423738 17.59689500460281 18.652697700210826 18.16378874150276 17.366574236072793 17.574952345271456 18.224553734812716 18.20015633627503 17.02369262187295 16.027711490977808 15.922928798934667 16.7893118958265 16.626764344431855 16.661840634421406 15.205040290419182 15.211718416281764 17.105980410822625 18.632953084027065 18.746991704671533 18.840004378184336 18.603228662484213 18.637177948619616 18.588687217533327 19.33831876635918 19.11738075105245 17.94325528458468 16.691947786816144 17.07680217023666 18.316483233138005 18.529365805864437 17.173504565638133 15.131174472314049 15.097306711535225 17.93512155545394 19.205424307148174 17.9414392413621 16.01568906305918 15.494484268308678 15.492829105679661 15.893096053683617 17.117159845107196 17.2258473737021 18.242575307134356 17.88952666133448 16.048229260863547 15.719355376502195 16.41093937156457 17.76752685389109 16.976999602633075 15.996573621763664 16.243144077060265 16.376323922570855 17.116971356323326 17.78000691811552 18.405390961580583 17.034163047839495 16.91860403776752 18.507443704263807 19.227207643369994 19.57448259326207 19.60426854119602 18.433777038613897 17.053617718885626 16.462634793583497 15.186593540872684 16.419266964624146 17.410215071289915 17.66502264707696 17.568380976479776 17.45619999541099 17.612157109389358 16.677988152129572 17.2679109701311 17.19402335193495 17.57667865828682 17.79548828083386 20.067069640457472 21.5394832473457 19.965369481254523 19.41549203481793 18.124881980472296 16.107146254561716 17.141511811089675 19.06165585613469 18.654800933342393 15.896614465686472 15.223250197372808 15.66352381379022 16.142950615920725 16.451989853009096 16.01706757827762 16.460493641731574 19.183533833435796 19.14454194136419 18.575202445076297 17.721275304918407 16.382738542971236 15.71704038847356 17.077246418461154 18.096598048274235 19.003101551526456 17.274565799708743 16.594114986074228 16.770865800795853 16.124810408088 16.320752088859415 17.39620537031552 16.306238090642136 15.538925389984044 16.794016663187836 19.256709978633225 20.347016635373162 19.99203011408334 19.886236693992608 19.004886022866447 16.03074920345773 15.494658834249721 15.500865916928811 14.240208741145487 15.577095446057411 17.024158824820084 16.77660867890881 17.9787547107838 18.423171106468494 17.266048408358497 16.338740851324392 17.648526919697073 18.8390572723821 18.288952956934153 16.832887079291314 17.658131501179504 19.371771936232328 21.098388303827914 21.78318304231346 19.83068706930736 18.229888933603906 17.65147712449155 18.1997327308094 16.87174501279502 16.180645276987082 16.31407214826429 18.220096918627117 19.837470623683753 20.504203999766613 20.657016012067718 20.350939721137518 19.257487829117323 18.5680916250054 16.724848906715806 15.626004688581986 17.390508338520295 19.133508558355082 17.507033799975396 17.343863254091143 17.87626431919488 18.14664787890884 19.184487106594435 18.946991546625288 16.31817301928929 14.22102436062727 15.157559410116486 16.536760845366235 17.182414286581704 16.844991044312675 16.976233736536905 16.664742228005785 16.40526242447746 16.975597339733348 16.66817995411804 14.54402528221347 14.12876782625783 14.39308214491272 15.559086561069918 16.721918122288045 16.177202267791092 16.189004928357587 16.784630011126946 16.64934682289344 15.313485720200976 15.547698191135206 17.16813450985136 19.341841755120576 19.587396667361826 19.47119184653109 18.668263883786143 18.523644947087398 17.8731522791923 17.724053553453203 16.925789680280886 17.411864278908673 18.54194432729549 18.414731219888367 18.444923040049634 19.132305434394716 17.007818629096395 15.524681652397664 15.772424566265943 17.22575301670006 17.579590076758393 16.487138921650647 16.551388915581505 17.186147169538938 18.330105426687517 17.731216264034675 16.515046159951247 16.65826891890714 17.22518329422192 17.09269488435823 16.15082203508688 15.700550889660413 17.41634269505678 18.332458803600748 17.331560218610573 16.493610064040173 14.099965866596827 13.26510012941602 14.66769373896261 16.990839414435236 18.452271155586335 18.170408009602138 17.960359380419813 18.24562557271598 18.78267522553461 20.571761191962825 20.60310756620423 19.43194554183683 18.429769023742157 18.443346229265067 19.342184068532127 19.384704169867067 17.8113936952196 14.891429793933524 13.716707919110622 16.041286418636922 17.519884610142093 17.63253378037463 17.366332045133834 16.66849542241206 16.730625063358328 17.5796526517915 17.853505903454298 16.978230658371018 17.789085176986656 17.753101624690203 17.515477191786193 17.50891933084795 16.654813224987087 17.026341564740058 16.226345753824784 16.26968213909794 16.057952365836798 15.690015481702169 16.322994118787364 18.02965518890595 18.637030700511854 17.85328825180641 17.75791518400317 18.79930020326553 18.275746656077974 17.272585629229916 17.56678078114843 16.707223000343074 16.47980350136388 16.913049341114267 15.894470341991118 16.383941485867485 17.20425607374427 17.207391058511067 17.57185493883441 17.704697455087373 17.133735189255177 16.259430146419955 16.7362484579739 16.822463646199488 17.599644346813378 18.445490660705282 20.074219108547716 20.69035362535747 19.52785027672525 19.51424259066781 18.021939732673832 16.6353450754156 17.369910967259877 18.799079071736397 18.40666770329097 16.44505533189987 16.39343151490894 16.463698553994153 16.104959507313158 16.86647596325076 15.694335695688883 15.18994182314237 16.923170715717514 16.473757836719706 17.21088420423239 17.514578504234724 16.784534320966884 16.348981239845685 17.50794384570722 18.729125209178967 20.42051898573793 19.210569247725065 16.849499191515847 15.53444628106498 13.759497390570314 14.420823495968753 16.624380505783105 15.837